 Gaussian 16, Revision C.01,
 Gaussian 16:  ES64L-G16RevC.01  3-Jul-2019

 --------------------------------
 # 6-31+g(d,p) pop=(full,nbo) m06
 --------------------------------

 ----
 I-M2
 ----
 Symbolic Z-matrix:
 Charge = -1 Multiplicity = 2

                         Standard orientation:
 ---------------------------------------------------------------------
 Center     Atomic      Atomic             Coordinates (Angstroms)
 Number     Number       Type             X           Y           Z
 ---------------------------------------------------------------------
      1          6           0       -2.815018    0.267296   -0.000256
      2          8           0       -2.806257   -1.077298    0.000325
      3          6           0       -0.765383   -0.448753    0.000152
      4          6           0       -1.539024    0.740456   -0.000351
      5          1           0       -1.190082    1.761481   -0.000606
      6          7           0       -1.502682   -1.537905    0.000570
      7          6           0       -4.141179    0.920201   -0.000470
      8          1           0       -4.025646    2.006539   -0.002023
      9          1           0       -4.718979    0.627462   -0.883806
     10          1           0       -4.718042    0.629938    0.884303
     11          7           0        0.612923   -0.600792    0.000082
     12          1           0        0.977647   -1.549964   -0.000298
     13          6           0        1.512436    0.420509    0.000286
     14          8           0        1.258921    1.605534    0.000756
     15          6           0        2.946013   -0.129795   -0.000172
     16          8           0        3.198349   -1.312485   -0.000620
     17          8           0        3.847943    0.840781   -0.000075
     18          1           0        4.724697    0.423680   -0.000350
 ---------------------------------------------------------------------

 SCF Done:  E(UM06) =  -642.319824111     A.U. after   30 cycles

 The electronic state is 2-A.
 Alpha  occ. eigenvalues --  -19.18423 -19.12319 -19.04765 -19.02553 -14.30205
 Alpha  occ. eigenvalues --  -14.28988 -10.20228 -10.19304 -10.18565 -10.17056
 Alpha  occ. eigenvalues --  -10.16766 -10.12920  -1.03583  -0.97284  -0.89178
 Alpha  occ. eigenvalues --   -0.87812  -0.81096  -0.72715  -0.69262  -0.62008
 Alpha  occ. eigenvalues --   -0.54448  -0.49956  -0.46973  -0.43789  -0.39301
 Alpha  occ. eigenvalues --   -0.37262  -0.37070  -0.34078  -0.33353  -0.32476
 Alpha  occ. eigenvalues --   -0.31529  -0.31485  -0.29673  -0.28355  -0.26674
 Alpha  occ. eigenvalues --   -0.26382  -0.23930  -0.20044  -0.18483  -0.18230
 Alpha  occ. eigenvalues --   -0.16191  -0.14367  -0.11221  -0.09215   0.05239
 Alpha virt. eigenvalues --    0.06089   0.09676   0.09945   0.10288   0.10396
 Alpha virt. eigenvalues --    0.11888   0.12844   0.13073   0.14100   0.14316
 Alpha virt. eigenvalues --    0.15619   0.15679   0.16815   0.17419   0.17483

  Beta  occ. eigenvalues --  -19.18335 -19.12237 -19.04474 -19.02210 -14.30018
  Beta  occ. eigenvalues --  -14.29008 -10.20201 -10.19029 -10.18533 -10.17059
  Beta  occ. eigenvalues --  -10.16498 -10.12940  -1.03333  -0.96739  -0.88158
  Beta  occ. eigenvalues --   -0.86845  -0.80734  -0.72403  -0.69172  -0.61938
  Beta  occ. eigenvalues --   -0.53580  -0.49628  -0.46746  -0.43512  -0.39169
  Beta  occ. eigenvalues --   -0.36939  -0.36841  -0.33782  -0.32829  -0.31957
  Beta  occ. eigenvalues --   -0.31395  -0.29830  -0.29504  -0.27773  -0.26127
  Beta  occ. eigenvalues --   -0.25628  -0.23367  -0.18382  -0.17825  -0.16700
  Beta  occ. eigenvalues --   -0.15604  -0.14018  -0.09981  -0.08576
  Beta virt. eigenvalues --    0.06490   0.09930   0.10113   0.10426   0.10686
  Beta virt. eigenvalues --    0.12094   0.12727   0.13320   0.14500   0.14545
  Beta virt. eigenvalues --    0.15259   0.15715   0.16111   0.17057   0.17712

 Mulliken charges and spin densities:
               1          2
     1  C   -0.139107   0.037107
     2  O   -0.011626   0.018751
     3  C    0.051261   0.028426
     4  C    0.285462  -0.023615
     5  H    0.178679   0.000406
     6  N   -0.532524   0.112608
     7  C   -0.572218   0.000221
     8  H    0.159985  -0.000092
     9  H    0.161180   0.002509
    10  H    0.161188   0.002518
    11  N   -0.376211  -0.025695
    12  H    0.313602  -0.000322
    13  C    0.078204   0.282358
    14  O   -0.695920   0.159154
    15  C    0.729637   0.259436
    16  O   -0.657231   0.128054
    17  O   -0.482299   0.020211
    18  H    0.347940  -0.002034
 Sum of Mulliken charges =  -1.00000   1.00000

 Dipole moment (field-independent basis, Debye):
    X=             -5.0886    Y=              1.4514    Z=             -0.0025  Tot=              5.2915
 Quadrupole moment (field-independent basis, Debye-Ang):
   XX=            -90.1992   YY=            -89.6285   ZZ=            -72.3586
   XY=             -7.5716   XZ=              0.0030   YZ=             -0.0035

 Summary of Natural Population Analysis:

                                       Natural Population
                Natural  -----------------------------------------------
    Atom  No    Charge         Core      Valence    Rydberg      Total
 -----------------------------------------------------------------------
      C    1    0.17031      0.99954     1.81711    0.01303     2.82969
      O    2   -0.17601      0.99986     3.16408    0.01207     4.17601
      C    3    0.18621      0.99962     1.79975    0.01442     2.81379
      C    4   -0.20323      0.99942     2.19611    0.00771     3.20323
      H    5    0.14199      0.00000     0.35697    0.00104     0.35801
      N    6   -0.08683      0.99967     2.57150    0.01565     3.58683
      C    7   -0.37493      0.99971     2.37158    0.00364     3.37493
      H    8    0.12769      0.00000     0.37186    0.00045     0.37231
      H    9    0.12713      0.00000     0.37203    0.00085     0.37287
      H   10    0.12713      0.00000     0.37203    0.00085     0.37287
      N   11   -0.34539      0.99966     2.83789    0.00784     3.84539
      H   12    0.23245      0.00000     0.26584    0.00171     0.26755
      C   13    0.35889      0.99966     1.61951    0.02194     2.64111
      O   14   -0.28454      0.99989     3.27323    0.01142     4.28454
      C   15    0.43107      0.99972     1.54437    0.02484     2.56893
      O   16   -0.31557      0.99989     3.30356    0.01212     4.31557
      O   17   -0.36378      0.99988     3.35346    0.01044     4.36378
      H   18    0.24742      0.00000     0.24882    0.00376     0.25258
 =======================================================================
   * Total *   -0.00000     11.99652    31.83969    0.16379    44.00000

 Normal termination of Gaussian 16 at Mon May 15 22:21:18 2023.
