 Gaussian 16, Revision C.01,
 Gaussian 16:  ES64L-G16RevC.01  3-Jul-2019

 --------------------------
 # opt freq 6-31+g(d,p) m06
 --------------------------

 ----
 I-M3
 ----
 Symbolic Z-matrix:
 Charge =  0 Multiplicity = 1

 SCF Done:  E(RM06) =  -1214.94566433     A.U. after   17 cycles
 SCF Done:  E(RM06) =  -1214.98040253     A.U. after   16 cycles
 SCF Done:  E(RM06) =  -1214.99095386     A.U. after   16 cycles
 SCF Done:  E(RM06) =  -1215.01913026     A.U. after   15 cycles
 SCF Done:  E(RM06) =  -1215.02325053     A.U. after   16 cycles
 SCF Done:  E(RM06) =  -1215.02139720     A.U. after   16 cycles
 SCF Done:  E(RM06) =  -1215.02736781     A.U. after   16 cycles
 SCF Done:  E(RM06) =  -1215.02948736     A.U. after   15 cycles
 SCF Done:  E(RM06) =  -1215.03069525     A.U. after   17 cycles
 SCF Done:  E(RM06) =  -1215.03315837     A.U. after   14 cycles
 SCF Done:  E(RM06) =  -1215.03726193     A.U. after   14 cycles
 SCF Done:  E(RM06) =  -1215.03803100     A.U. after   15 cycles
 SCF Done:  E(RM06) =  -1215.03680765     A.U. after   15 cycles
 SCF Done:  E(RM06) =  -1215.03825494     A.U. after   14 cycles
 SCF Done:  E(RM06) =  -1215.03825545     A.U. after   13 cycles
 SCF Done:  E(RM06) =  -1215.03862023     A.U. after   14 cycles
 SCF Done:  E(RM06) =  -1215.03862723     A.U. after   12 cycles
 SCF Done:  E(RM06) =  -1215.03862851     A.U. after   12 cycles
 SCF Done:  E(RM06) =  -1215.03862880     A.U. after   11 cycles
 Optimization completed.
    -- Stationary point found.
 Normal termination of Gaussian 16 at Mon May 15 23:54:21 2023.

 ---------------------------------------------------------------------
 #N Geom=AllCheck Guess=TCheck SCRF=Check GenChk RM06/6-31+G(d,p) Freq
 ---------------------------------------------------------------------

 Structure from the checkpoint file:  "/home/user/SOFTWARE/gauss/scratch/Gau-58391.chk"
 ----
 I-M3
 ----
 Charge =  0 Multiplicity = 1

                         Standard orientation:
 ---------------------------------------------------------------------
 Center     Atomic      Atomic             Coordinates (Angstroms)
 Number     Number       Type             X           Y           Z
 ---------------------------------------------------------------------
      1          6           0       -1.498390   -0.275058    0.089783
      2          6           0       -1.002836    1.034497    0.003880
      3          6           0       -1.911882    2.076534   -0.200919
      4          6           0       -3.266830    1.800752   -0.340728
      5          6           0       -3.734770    0.488993   -0.280958
      6          6           0       -2.846704   -0.560140   -0.060937
      7          1           0       -3.965396    2.617186   -0.504183
      8          1           0       -3.186232   -1.591370   -0.002922
      9          6           0        0.435147    1.299385    0.098500
     10          6           0        1.373762    0.310510   -0.088196
     11          6           0        2.784288    0.635747    0.013433
     12          8           0        0.746320    2.556789    0.379425
     13          1           0        1.733801    2.628435    0.399275
     14          8           0        3.210160    1.768432    0.243294
     15          1           0       -1.540751    3.095828   -0.257471
     16          8           0        3.613128   -0.392623   -0.184208
     17          1           0        4.514317   -0.046476   -0.087515
     18          1           0       -4.795183    0.282751   -0.400081
     19          8           0       -0.011922   -1.462147    1.892684
     20          8           0       -0.792908   -2.808622   -0.107745
     21         16           0       -0.335400   -1.561258    0.481904
     22          7           0        0.993546   -1.027693   -0.390113
     23          6           0        1.050119   -1.408651   -1.806689
     24          1           0        0.354033   -0.812536   -2.416643
     25          1           0        2.072969   -1.240639   -2.154637
     26          1           0        0.814369   -2.469231   -1.906105
 ---------------------------------------------------------------------

 SCF Done:  E(RM06) =  -1215.03862880     A.U. after    1 cycles

 The electronic state is 1-A.
 Alpha  occ. eigenvalues --  -89.30688 -19.31336 -19.30102 -19.25911 -19.25282
 Alpha  occ. eigenvalues --  -19.24826 -14.46978 -10.42658 -10.38202 -10.32418
 Alpha  occ. eigenvalues --  -10.32183 -10.31875 -10.30514 -10.30510 -10.30359
 Alpha  occ. eigenvalues --  -10.30308 -10.30162  -8.27279  -6.19096  -6.19006
 Alpha  occ. eigenvalues --   -6.18900  -1.16633  -1.16057  -1.13330  -1.06971
 Alpha  occ. eigenvalues --   -1.05248  -0.98915  -0.91792  -0.83570  -0.81573
 Alpha  occ. eigenvalues --   -0.80074  -0.74345  -0.72152  -0.68243  -0.66508
 Alpha  occ. eigenvalues --   -0.64808  -0.61244  -0.58994  -0.57104  -0.53950
 Alpha  occ. eigenvalues --   -0.53787  -0.52497  -0.52068  -0.50269  -0.49802
 Alpha  occ. eigenvalues --   -0.48947  -0.48215  -0.47546  -0.46536  -0.45264
 Alpha  occ. eigenvalues --   -0.44772  -0.43662  -0.42155  -0.41692  -0.41161
 Alpha  occ. eigenvalues --   -0.39921  -0.37500  -0.36937  -0.36022  -0.35286
 Alpha  occ. eigenvalues --   -0.33986  -0.33509  -0.31600  -0.30440  -0.29477
 Alpha  occ. eigenvalues --   -0.26504
 Alpha virt. eigenvalues --   -0.08985  -0.04906  -0.03446  -0.03035  -0.01957
 Alpha virt. eigenvalues --   -0.01591  -0.00964  -0.00818  -0.00070   0.00866
 Alpha virt. eigenvalues --    0.01279   0.01522   0.01949   0.02033   0.03418

 Mulliken charges:
               1
     1  C   -1.697740
     2  C    0.513508
     3  C    0.253033
     4  C   -0.260620
     5  C    0.090402
     6  C    0.373039
     7  H    0.163782
     8  H    0.188286
     9  C    0.323970
    10  C   -0.436366
    11  C    0.480857
    12  O   -0.521318
    13  H    0.437963
    14  O   -0.559019
    15  H    0.180257
    16  O   -0.444223
    17  H    0.412053
    18  H    0.164916
    19  O   -0.434172
    20  O   -0.518139
    21  S    1.294313
    22  N   -0.392952
    23  C   -0.147753
    24  H    0.161480
    25  H    0.175629
    26  H    0.198817
 Sum of Mulliken charges =  -0.00000

 Dipole moment (field-independent basis, Debye):
    X=             -1.3182    Y=              2.7392    Z=             -3.6160  Tot=              4.7240
 Quadrupole moment (field-independent basis, Debye-Ang):
   XX=            -82.1182   YY=           -113.4764   ZZ=           -108.9788
   XY=             -7.3043   XZ=             -1.5463   YZ=              2.9646

  Exact polarizability:     216.106     -10.894     163.416       2.762       2.410     102.407
 Approx polarizability:     307.592     -13.391     266.415       8.759       5.280     158.211

                      1                      2                      3
                      A                      A                      A
 Frequencies --     61.1980                81.8820               111.4902
 Red. masses --      6.3916                 4.8907                 6.5162
 Frc consts  --      0.0141                 0.0193                 0.0477
 IR Inten    --      2.0438                 2.3202                 0.8020

                      4                      5                      6
                      A                      A                      A
 Frequencies --    117.7486               148.1997               172.4898
 Red. masses --      6.1463                 4.8401                 1.1390
 Frc consts  --      0.0502                 0.0626                 0.0200
 IR Inten    --      1.7278                 1.4645                 0.2030

                      7                      8                      9
                      A                      A                      A
 Frequencies --    176.8385               192.9269               242.0098
 Red. masses --      5.7822                 6.1330                 6.5997
 Frc consts  --      0.1065                 0.1345                 0.2277
 IR Inten    --      0.3631                 0.1875                 0.6451

                     10                     11                     12
                      A                      A                      A
 Frequencies --    280.3070               301.6518               336.4670
 Red. masses --      4.0681                 6.2199                 7.9503
 Frc consts  --      0.1883                 0.3335                 0.5303
 IR Inten    --      1.1635                 0.4096                 8.2159

                     13                     14                     15
                      A                      A                      A
 Frequencies --    356.4380               367.8337               392.3987
 Red. masses --      8.5122                 6.4365                 5.9161
 Frc consts  --      0.6372                 0.5131                 0.5367
 IR Inten    --      0.6614                 3.5153                 4.0831

                     16                     17                     18
                      A                      A                      A
 Frequencies --    409.3376               430.7397               457.4198
 Red. masses --      5.0299                 6.4236                 5.3682
 Frc consts  --      0.4966                 0.7022                 0.6618
 IR Inten    --      1.3872                 6.3837                 8.0023

                     19                     20                     21
                      A                      A                      A
 Frequencies --    494.4847               520.4951               563.7829
 Red. masses --      4.8503                 6.2020                 9.6170
 Frc consts  --      0.6988                 0.9900                 1.8010
 IR Inten    --     18.5747                11.2398                37.3951

                     22                     23                     24
                      A                      A                      A
 Frequencies --    566.2324               608.6077               613.7599
 Red. masses --      6.6156                 1.3687                 6.1549
 Frc consts  --      1.2497                 0.2987                 1.3661
 IR Inten    --     37.9792                86.4438                10.2444

                     25                     26                     27
                      A                      A                      A
 Frequencies --    645.4509               677.5713               690.5199
 Red. masses --      5.6180                 4.4776                 4.8329
 Frc consts  --      1.3790                 1.2112                 1.3577
 IR Inten    --     54.2495                 9.9899                31.5837

                     28                     29                     30
                      A                      A                      A
 Frequencies --    754.2896               760.8806               782.0523
 Red. masses --      2.5974                 5.8461                 2.0037
 Frc consts  --      0.8707                 1.9941                 0.7220
 IR Inten    --      7.3159                14.2814                54.4831

                     31                     32                     33
                      A                      A                      A
 Frequencies --    802.3175               834.1542               840.9432
 Red. masses --      3.2654                 1.2788                 4.0319
 Frc consts  --      1.2384                 0.5243                 1.6799
 IR Inten    --      5.6294               124.3119                67.1645

                     34                     35                     36
                      A                      A                      A
 Frequencies --    897.1565               908.2283               975.7388
 Red. masses --      1.3948                 4.9553                 1.3761
 Frc consts  --      0.6615                 2.4083                 0.7719
 IR Inten    --      0.2385                11.3980                 1.2385

                     37                     38                     39
                      A                      A                      A
 Frequencies --   1004.8523              1059.3499              1074.0694
 Red. masses --      1.3184                 2.2980                 3.6439
 Frc consts  --      0.7843                 1.5195                 2.4768
 IR Inten    --      0.3308                 2.0921                 5.7833

                     40                     41                     42
                      A                      A                      A
 Frequencies --   1082.0206              1126.7161              1143.3468
 Red. masses --      3.8244                 1.3541                 1.9574
 Frc consts  --      2.6380                 1.0128                 1.5076
 IR Inten    --     48.2282                 7.3994                38.0499

                     43                     44                     45
                      A                      A                      A
 Frequencies --   1164.7475              1168.8420              1186.9309
 Red. masses --      1.3388                 1.8324                 2.2379
 Frc consts  --      1.0701                 1.4750                 1.8576
 IR Inten    --     20.4393                16.7371               378.7853

                     46                     47                     48
                      A                      A                      A
 Frequencies --   1200.8801              1218.8801              1272.4872
 Red. masses --      6.2748                 2.0173                 1.5947
 Frc consts  --      5.3315                 1.7658                 1.5213
 IR Inten    --    191.0717                59.7475                 9.2405

                     49                     50                     51
                      A                      A                      A
 Frequencies --   1284.4434              1350.8398              1379.5256
 Red. masses --      2.9068                 2.6033                 6.8752
 Frc consts  --      2.8255                 2.7988                 7.7090
 IR Inten    --      6.2584               230.3813                35.8825

                     52                     53                     54
                      A                      A                      A
 Frequencies --   1386.9145              1421.7024              1444.3552
 Red. masses --      8.9055                 1.2891                 2.1277
 Frc consts  --     10.0927                 1.5351                 2.6153
 IR Inten    --    236.1650                 7.9442                84.5798

                     55                     56                     57
                      A                      A                      A
 Frequencies --   1455.8025              1459.2175              1468.3657
 Red. masses --      1.3543                 1.0733                 2.0986
 Frc consts  --      1.6911                 1.3465                 2.6659
 IR Inten    --     83.8511                41.7791                 8.3773

                     58                     59                     60
                      A                      A                      A
 Frequencies --   1480.2410              1518.2361              1616.3597
 Red. masses --      3.1867                 3.8443                 5.3918
 Frc consts  --      4.1140                 5.2209                 8.2997
 IR Inten    --    260.9011                 1.5849               132.9001

                     61                     62                     63
                      A                      A                      A
 Frequencies --   1656.9903              1662.0153              1761.7093
 Red. masses --      5.6240                 6.6004                 8.7161
 Frc consts  --      9.0978                10.7421                15.9383
 IR Inten    --    115.8411                25.1677               338.9115

                     64                     65                     66
                      A                      A                      A
 Frequencies --   3005.2356              3118.6176              3172.7040
 Red. masses --      1.0445                 1.0935                 1.1034
 Frc consts  --      5.5581                 6.2663                 6.5442
 IR Inten    --     37.3487                10.7035                 0.7868

                     67                     68                     69
                      A                      A                      A
 Frequencies --   3184.2702              3194.0019              3202.4174
 Red. masses --      1.0865                 1.0909                 1.0964
 Frc consts  --      6.4910                 6.5570                 6.6249
 IR Inten    --      2.7559                 3.2178                 7.2798

                     70                     71                     72
                      A                      A                      A
 Frequencies --   3209.8288              3397.9048              3815.3594
 Red. masses --      1.0961                 1.0682                 1.0647
 Frc consts  --      6.6540                 7.2668                 9.1315
 IR Inten    --      5.6157               345.9716               194.8781

 - Thermochemistry -
 -------------------
 Temperature   298.150 Kelvin.  Pressure   1.00000 Atm.
 Atom     1 has atomic number  6 and mass  12.00000

 Molecular mass:   255.02014 amu.
 Principal axes and moments of inertia in atomic units:
                           1         2         3
     Eigenvalues --  2618.742954374.734196081.33644
           X            0.99971  -0.02401  -0.00240
           Y            0.02405   0.99957   0.01682
           Z            0.00199  -0.01687   0.99986
 This molecule is an asymmetric top.
 Rotational symmetry number  1.
 Warning -- assumption of classical behavior for rotation
           may cause significant error
 Rotational temperatures (Kelvin)      0.03307     0.01980     0.01424
 Rotational constants (GHZ):           0.68916     0.41254     0.29677
 Zero-point vibrational energy     495997.0 (Joules/Mol)
                                  118.54613 (Kcal/Mol)
 Warning -- explicit consideration of  24 degrees of freedom as
           vibrations may cause significant error
 Vibrational temperatures:     88.05   117.81   160.41   169.41   213.23
          (Kelvin)            248.17   254.43   277.58   348.20   403.30
                              434.01   484.10   512.83   529.23   564.57
                              588.95   619.74   658.13   711.45   748.88
                              811.16   814.68   875.65   883.06   928.66
                              974.87   993.50  1085.25  1094.74  1125.20
                             1154.36  1200.16  1209.93  1290.81  1306.74
                             1403.87  1445.76  1524.17  1545.35  1556.79
                             1621.09  1645.02  1675.81  1681.70  1707.73
                             1727.80  1753.70  1830.83  1848.03  1943.56
                             1984.83  1995.46  2045.51  2078.11  2094.58
                             2099.49  2112.65  2129.74  2184.40  2325.58
                             2384.04  2391.27  2534.71  4323.86  4487.00
                             4564.81  4581.45  4595.46  4607.56  4618.23
                             4888.83  5489.45

 Zero-point correction=                           0.188915 (Hartree/Particle)
 Thermal correction to Energy=                    0.203215
 Thermal correction to Enthalpy=                  0.204159
 Thermal correction to Gibbs Free Energy=         0.148150
 Sum of electronic and zero-point Energies=          -1214.849714
 Sum of electronic and thermal Energies=             -1214.835414
 Sum of electronic and thermal Enthalpies=           -1214.834470
 Sum of electronic and thermal Free Energies=        -1214.890479

                     E (Thermal)             CV                S
                      KCal/Mol        Cal/Mol-Kelvin    Cal/Mol-Kelvin
 Total                  127.519             55.808            117.881
 Electronic               0.000              0.000              0.000
 Translational            0.889              2.981             42.509
 Rotational               0.889              2.981             32.610
 Vibrational            125.742             49.846             42.762
 Vibration     1          0.597              1.973              4.418
 Vibration     2          0.600              1.962              3.845
 Vibration     3          0.607              1.940              3.243
 Vibration     4          0.608              1.935              3.137
 Vibration     5          0.618              1.905              2.695
 Vibration     6          0.626              1.876              2.408
 Vibration     7          0.628              1.871              2.362
 Vibration     8          0.635              1.850              2.200
 Vibration     9          0.658              1.776              1.788
 Vibration    10          0.680              1.710              1.532
 Vibration    11          0.694              1.671              1.408
 Vibration    12          0.717              1.603              1.229
 Vibration    13          0.732              1.562              1.138
 Vibration    14          0.740              1.538              1.089
 Vibration    15          0.760              1.486              0.991
 Vibration    16          0.774              1.450              0.929
 Vibration    17          0.792              1.403              0.856
 Vibration    18          0.816              1.344              0.774
 Vibration    19          0.850              1.262              0.672
 Vibration    20          0.875              1.205              0.609
 Vibration    21          0.920              1.110              0.516
 Vibration    22          0.922              1.104              0.512
 Vibration    23          0.967              1.014              0.435
 Vibration    24          0.973              1.003              0.427

                           ! Non-Optimized Parameters !
 Normal termination of Gaussian 16 at Tue May 16 00:06:59 2023.
