 Gaussian 16, Revision C.01,
 Gaussian 16:  ES64L-G16RevC.01  3-Jul-2019

 --------------------------------
 # 6-31+g(d,p) pop=(full,nbo) m06
 --------------------------------

 ----
 I-M2
 ----
 Symbolic Z-matrix:
 Charge =  0 Multiplicity = 1

                         Standard orientation:
 ---------------------------------------------------------------------
 Center     Atomic      Atomic             Coordinates (Angstroms)
 Number     Number       Type             X           Y           Z
 ---------------------------------------------------------------------
      1          6           0       -2.815018    0.267296   -0.000256
      2          8           0       -2.806257   -1.077298    0.000325
      3          6           0       -0.765383   -0.448753    0.000152
      4          6           0       -1.539024    0.740456   -0.000351
      5          1           0       -1.190082    1.761481   -0.000606
      6          7           0       -1.502682   -1.537905    0.000570
      7          6           0       -4.141179    0.920201   -0.000470
      8          1           0       -4.025646    2.006539   -0.002023
      9          1           0       -4.718979    0.627462   -0.883806
     10          1           0       -4.718042    0.629938    0.884303
     11          7           0        0.612923   -0.600792    0.000082
     12          1           0        0.977647   -1.549964   -0.000298
     13          6           0        1.512436    0.420509    0.000286
     14          8           0        1.258921    1.605534    0.000756
     15          6           0        2.946013   -0.129795   -0.000172
     16          8           0        3.198349   -1.312485   -0.000620
     17          8           0        3.847943    0.840781   -0.000075
     18          1           0        4.724697    0.423680   -0.000350
 ---------------------------------------------------------------------

 SCF Done:  E(RM06) =  -642.307639080     A.U. after   15 cycles

 The electronic state is 1-A.
 Alpha  occ. eigenvalues --  -19.34028 -19.32790 -19.27632 -19.25344 -14.48711
 Alpha  occ. eigenvalues --  -14.47099 -10.43796 -10.40915 -10.35351 -10.35001
 Alpha  occ. eigenvalues --  -10.28445 -10.27638  -1.18844  -1.18079  -1.10423
 Alpha  occ. eigenvalues --   -1.09152  -1.00196  -0.89068  -0.83910  -0.75341
 Alpha  occ. eigenvalues --   -0.75086  -0.68036  -0.63881  -0.61271  -0.56818
 Alpha  occ. eigenvalues --   -0.54123  -0.53918  -0.52496  -0.51226  -0.50448
 Alpha  occ. eigenvalues --   -0.48596  -0.46410  -0.45078  -0.44379  -0.43847
 Alpha  occ. eigenvalues --   -0.43167  -0.41139  -0.38330  -0.37870  -0.37102
 Alpha  occ. eigenvalues --   -0.33551  -0.30358  -0.29253  -0.27810
 Alpha virt. eigenvalues --   -0.07867  -0.03756  -0.02440  -0.01585  -0.01276
 Alpha virt. eigenvalues --   -0.00156   0.00064   0.00919   0.01407   0.01617
 Alpha virt. eigenvalues --    0.03251   0.03619   0.03825   0.04466   0.04883

 Mulliken charges:
               1
     1  C   -0.197761
     2  O    0.041765
     3  C   -0.063635
     4  C    0.441816
     5  H    0.196302
     6  N   -0.429013
     7  C   -0.539042
     8  H    0.179704
     9  H    0.193265
    10  H    0.193290
    11  N   -0.330949
    12  H    0.345214
    13  C    0.308411
    14  O   -0.525869
    15  C    0.690694
    16  O   -0.479617
    17  O   -0.424715
    18  H    0.400140
 Sum of Mulliken charges =  -0.00000

 Dipole moment (field-independent basis, Debye):
    X=             -0.0375    Y=              1.4766    Z=             -0.0023  Tot=              1.4771
 Quadrupole moment (field-independent basis, Debye-Ang):
   XX=            -47.2555   YY=            -78.6345   ZZ=            -67.5947
   XY=             -7.8691   XZ=              0.0017   YZ=             -0.0025

 Summary of Natural Population Analysis:

                                       Natural Population
                Natural  -----------------------------------------------
    Atom  No    Charge         Core      Valence    Rydberg      Total
 -----------------------------------------------------------------------
      C    1    0.37727      1.99908     3.59836    0.02529     5.62273
      O    2   -0.33264      1.99972     6.31087    0.02205     8.33264
      C    3    0.34650      1.99922     3.62540    0.02889     5.65350
      C    4   -0.39582      1.99884     4.38331    0.01367     6.39582
      H    5    0.29130      0.00000     0.70705    0.00165     0.70870
      N    6   -0.18908      1.99934     5.15913    0.03061     7.18908
      C    7   -0.76571      1.99941     4.75881    0.00749     6.76571
      H    8    0.27119      0.00000     0.72802    0.00079     0.72881
      H    9    0.27655      0.00000     0.72212    0.00133     0.72345
      H   10    0.27656      0.00000     0.72211    0.00133     0.72344
      N   11   -0.66096      1.99932     5.64882    0.01281     7.66096
      H   12    0.48254      0.00000     0.51374    0.00372     0.51746
      C   13    0.61760      1.99932     3.34343    0.03964     5.38240
      O   14   -0.58701      1.99980     6.56161    0.02560     8.58701
      C   15    0.77120      1.99944     3.18401    0.04535     5.22880
      O   16   -0.61620      1.99979     6.59035    0.02606     8.61620
      O   17   -0.69761      1.99977     6.68105    0.01680     8.69761
      H   18    0.53434      0.00000     0.45959    0.00608     0.46566
 =======================================================================
   * Total *   -0.00000     23.99305    63.69779    0.30916    88.00000

 Normal termination of Gaussian 16 at Mon May 15 22:18:01 2023.
