 Gaussian 16, Revision C.01,
 Gaussian 16:  ES64L-G16RevC.01  3-Jul-2019

 --------------------------
 # opt freq 6-31+g(d,p) m06
 --------------------------

 ----
 I-M3
 ----
 Symbolic Z-matrix:
 Charge =  0 Multiplicity = 1

 SCF Done:  E(RM06) =  -1554.36410921     A.U. after   16 cycles
 SCF Done:  E(RM06) =  -1554.36864912     A.U. after   14 cycles
 SCF Done:  E(RM06) =  -1554.36942425     A.U. after   13 cycles
 SCF Done:  E(RM06) =  -1554.36960775     A.U. after   13 cycles
 SCF Done:  E(RM06) =  -1554.36963835     A.U. after   11 cycles
 SCF Done:  E(RM06) =  -1554.36965194     A.U. after   11 cycles
 SCF Done:  E(RM06) =  -1554.36965302     A.U. after   10 cycles
 SCF Done:  E(RM06) =  -1554.36965323     A.U. after   10 cycles
 Optimization completed.
    -- Stationary point found.
 Normal termination of Gaussian 16 at Tue May 16 07:21:39 2023.

 ---------------------------------------------------------------------
 #N Geom=AllCheck Guess=TCheck SCRF=Check GenChk RM06/6-31+G(d,p) Freq
 ---------------------------------------------------------------------

 Structure from the checkpoint file:  "/home/user/SOFTWARE/gauss/scratch/Gau-78337.chk"
 ----
 I-M3
 ----
 Charge =  0 Multiplicity = 1

                         Standard orientation:
 ---------------------------------------------------------------------
 Center     Atomic      Atomic             Coordinates (Angstroms)
 Number     Number       Type             X           Y           Z
 ---------------------------------------------------------------------
      1          6           0       -2.799576   -0.290901   -0.154840
      2          6           0       -4.138554   -0.626018   -0.122105
      3          6           0       -5.076731    0.396108    0.039441
      4          6           0       -4.656358    1.723302    0.156980
      5          6           0       -3.305109    2.034788    0.132388
      6          6           0       -2.344564    1.030387   -0.012202
      7          1           0       -4.464787   -1.658265   -0.220391
      8          1           0       -5.394738    2.515208    0.274873
      9          1           0       -2.977275    3.065880    0.230167
     10          6           0       -0.916481    1.342007   -0.012125
     11          6           0        0.040710    0.378598    0.185559
     12         16           0       -1.578779   -1.552505   -0.466285
     13          8           0       -1.157360   -1.455391   -1.850684
     14          8           0       -2.040032   -2.807224    0.103201
     15          7           0       -0.317281   -0.974859    0.490871
     16          6           0       -0.431086   -1.276579    1.928889
     17          1           0        0.521353   -1.013100    2.398734
     18          1           0       -1.234564   -0.696227    2.406123
     19          1           0       -0.614411   -2.343945    2.064304
     20          8           0       -0.621343    2.614758   -0.240883
     21          1           0        0.369450    2.694705   -0.199754
     22          6           0        1.456119    0.712498    0.075838
     23          8           0        1.844888    1.885843   -0.046261
     24          7           0        2.314096   -0.347127    0.122458
     25          1           0        1.903313   -1.276685    0.125145
     26          6           0        3.696248   -0.277209    0.050933
     27          7           0        4.365906   -1.408810    0.102840
     28          6           0        5.786718    0.301664   -0.083841
     29          6           0        4.544197    0.855445   -0.066551
     30          6           0        7.148730    0.867149   -0.189241
     31          1           0        7.751312    0.598357    0.685174
     32          1           0        7.662570    0.482396   -1.076867
     33          1           0        7.099273    1.956376   -0.258820
     34          8           0        5.696128   -1.035722    0.014954
     35          1           0        4.258728    1.893532   -0.132487
     36          8           0       -6.377351    0.035276    0.070416
     37          1           0       -6.943795    0.809685    0.170499
 ---------------------------------------------------------------------

 SCF Done:  E(RM06) =  -1554.36965323     A.U. after    1 cycles

 The electronic state is 1-A.
 Alpha  occ. eigenvalues --  -89.31056 -19.33262 -19.31174 -19.29340 -19.25689
 Alpha  occ. eigenvalues --  -19.25320 -19.24180 -14.47641 -14.47485 -14.46238
 Alpha  occ. eigenvalues --  -10.39887 -10.37602 -10.37202 -10.34569 -10.34315
 Alpha  occ. eigenvalues --  -10.32761 -10.31647 -10.31332 -10.31103 -10.30907
 Alpha  occ. eigenvalues --  -10.30491 -10.30332 -10.27993 -10.26917  -8.27665
 Alpha  occ. eigenvalues --   -6.19478  -6.19388  -6.19288  -1.18032  -1.16518
 Alpha  occ. eigenvalues --   -1.13429  -1.12967  -1.09018  -1.05692  -0.99949
 Alpha  occ. eigenvalues --   -0.98350  -0.91946  -0.88228  -0.83378  -0.83106
 Alpha  occ. eigenvalues --   -0.81936  -0.79431  -0.74811  -0.74581  -0.71768
 Alpha  occ. eigenvalues --   -0.69452  -0.67459  -0.65065  -0.63817  -0.62493
 Alpha  occ. eigenvalues --   -0.60918  -0.60498  -0.57075  -0.55642  -0.53969
 Alpha  occ. eigenvalues --   -0.53390  -0.52752  -0.52247  -0.51206  -0.50936
 Alpha  occ. eigenvalues --   -0.49820  -0.48936  -0.48212  -0.47966  -0.47137
 Alpha  occ. eigenvalues --   -0.46839  -0.46394  -0.45352  -0.44827  -0.44088
 Alpha  occ. eigenvalues --   -0.43981  -0.43330  -0.43182  -0.42599  -0.41856
 Alpha  occ. eigenvalues --   -0.40478  -0.40401  -0.39773  -0.37789  -0.37133
 Alpha  occ. eigenvalues --   -0.36341  -0.35255  -0.34014  -0.33213  -0.32718
 Alpha  occ. eigenvalues --   -0.30778  -0.30149  -0.29164  -0.28583  -0.27253
 Alpha  occ. eigenvalues --   -0.25479
 Alpha virt. eigenvalues --   -0.08251  -0.05446  -0.04817  -0.02719  -0.02288
 Alpha virt. eigenvalues --   -0.02074  -0.01817  -0.01016  -0.00801  -0.00475
 Alpha virt. eigenvalues --   -0.00016   0.00553   0.00896   0.01236   0.01370

 Mulliken charges:
               1
     1  C   -1.061997
     2  C    0.338683
     3  C   -0.197207
     4  C    0.451840
     5  C   -0.244280
     6  C    0.726786
     7  H    0.198530
     8  H    0.140491
     9  H    0.182090
    10  C   -0.176116
    11  C   -0.387895
    12  S    1.316028
    13  O   -0.412031
    14  O   -0.495110
    15  N   -0.642434
    16  C   -0.130309
    17  H    0.172556
    18  H    0.171937
    19  H    0.203882
    20  O   -0.526299
    21  H    0.448230
    22  C    0.592616
    23  O   -0.650318
    24  N   -0.292671
    25  H    0.344286
    26  C    0.209662
    27  N   -0.532686
    28  C   -0.337797
    29  C    0.456347
    30  C   -0.597863
    31  H    0.190986
    32  H    0.192533
    33  H    0.177463
    34  O    0.107215
    35  H    0.189771
    36  O   -0.502855
    37  H    0.375937
 Sum of Mulliken charges =   0.00000

 Dipole moment (field-independent basis, Debye):
    X=             -2.7194    Y=              5.5519    Z=              3.2299  Tot=              6.9751
 Quadrupole moment (field-independent basis, Debye-Ang):
   XX=           -101.6813   YY=           -154.2341   ZZ=           -148.6459
   XY=             -5.7403   XZ=             -5.1262   YZ=             -2.9560

  Exact polarizability:     369.203     -15.995     214.064      -1.180      -2.242     135.521
 Approx polarizability:     455.486     -22.575     365.360      -3.669      -4.943     210.657

                      1                      2                      3
                      A                      A                      A
 Frequencies --     23.2603                38.8935                55.6896
 Red. masses --      6.7488                 5.1020                 6.7940
 Frc consts  --      0.0022                 0.0045                 0.0124
 IR Inten    --      1.1538                 2.3715                 1.2707

                      4                      5                      6
                      A                      A                      A
 Frequencies --     64.8901                90.5919                92.1348
 Red. masses --      5.4319                 4.2573                 1.2669
 Frc consts  --      0.0135                 0.0206                 0.0063
 IR Inten    --      0.1503                 5.7773                 1.5714

                      7                      8                      9
                      A                      A                      A
 Frequencies --    114.6593               120.3916               145.4793
 Red. masses --      4.1086                 6.5354                 5.6513
 Frc consts  --      0.0318                 0.0558                 0.0705
 IR Inten    --      2.7959                 1.0510                 0.2782

                     10                     11                     12
                      A                      A                      A
 Frequencies --    151.4738               168.7287               185.3299
 Red. masses --      5.7196                 4.6146                 1.3102
 Frc consts  --      0.0773                 0.0774                 0.0265
 IR Inten    --      2.5592                 6.9664                 0.1929

                     13                     14                     15
                      A                      A                      A
 Frequencies --    189.5646               216.7098               230.9796
 Red. masses --      5.2255                 3.5228                 5.6705
 Frc consts  --      0.1106                 0.0975                 0.1782
 IR Inten    --      0.1435                 0.5002                 1.9808

                     16                     17                     18
                      A                      A                      A
 Frequencies --    270.7416               285.5501               303.5159
 Red. masses --      5.4503                 3.6820                 5.7809
 Frc consts  --      0.2354                 0.1769                 0.3138
 IR Inten    --      0.8356                 4.9690                 1.7970

                     19                     20                     21
                      A                      A                      A
 Frequencies --    327.2164               345.7597               360.3704
 Red. masses --      6.2257                 7.7067                 5.8186
 Frc consts  --      0.3927                 0.5428                 0.4452
 IR Inten    --      5.9834                 1.9973                 0.9454

                     22                     23                     24
                      A                      A                      A
 Frequencies --    367.5689               381.8953               385.5085
 Red. masses --      8.3737                 1.1617                 5.8194
 Frc consts  --      0.6666                 0.0998                 0.5096
 IR Inten    --      0.8747               109.9239                 4.5725

                     25                     26                     27
                      A                      A                      A
 Frequencies --    408.2432               420.1781               430.9970
 Red. masses --      6.0419                 5.6260                 6.3934
 Frc consts  --      0.5933                 0.5852                 0.6997
 IR Inten    --     17.1621                 9.6766                 4.1297

                     28                     29                     30
                      A                      A                      A
 Frequencies --    446.8059               474.8881               515.5834
 Red. masses --      4.1502                 4.8100                 7.4812
 Frc consts  --      0.4882                 0.6391                 1.1717
 IR Inten    --      8.6051                13.4937                 6.9233

                     31                     32                     33
                      A                      A                      A
 Frequencies --    535.2474               557.6273               578.6007
 Red. masses --      7.1724                 9.9957                 6.8839
 Frc consts  --      1.2107                 1.8313                 1.3578
 IR Inten    --     38.8639                43.1903                 2.5562

                     34                     35                     36
                      A                      A                      A
 Frequencies --    619.6833               624.1759               632.7023
 Red. masses --      4.8458                 5.2374                 4.9555
 Frc consts  --      1.0964                 1.2022                 1.1688
 IR Inten    --      3.2941                 1.2727                36.1856

                     37                     38                     39
                      A                      A                      A
 Frequencies --    654.4066               667.3094               679.0813
 Red. masses --      3.2712                 1.2943                 6.8028
 Frc consts  --      0.8254                 0.3396                 1.8483
 IR Inten    --     12.5981                54.4446                28.6835

                     40                     41                     42
                      A                      A                      A
 Frequencies --    707.4234               709.9484               736.4901
 Red. masses --      4.4899                 7.8923                 6.1101
 Frc consts  --      1.3239                 2.3437                 1.9527
 IR Inten    --      1.6003                24.2041                24.4230

                     43                     44                     45
                      A                      A                      A
 Frequencies --    747.0328               780.2771               811.3143
 Red. masses --      5.9570                 5.8097                 1.9346
 Frc consts  --      1.9586                 2.0840                 0.7503
 IR Inten    --     10.4559                23.7076                31.6086

                     46                     47                     48
                      A                      A                      A
 Frequencies --    813.2752               834.4926               852.1417
 Red. masses --      2.1226                 1.6986                 4.5394
 Frc consts  --      0.8272                 0.6969                 1.9421
 IR Inten    --     29.0245                28.3576                32.2302

                     49                     50                     51
                      A                      A                      A
 Frequencies --    872.0801               888.6997               929.3460
 Red. masses --      1.1188                 1.4208                 5.1704
 Frc consts  --      0.5013                 0.6612                 2.6310
 IR Inten    --    102.6542                13.5872                42.0107

                     52                     53                     54
                      A                      A                      A
 Frequencies --    950.6128               963.9581               964.5686
 Red. masses --      3.3975                 1.4333                 2.3266
 Frc consts  --      1.8089                 0.7847                 1.2754
 IR Inten    --     21.7751                 1.8020                 6.6703

                     55                     56                     57
                      A                      A                      A
 Frequencies --   1011.7688              1029.4355              1044.7533
 Red. masses --      3.1799                 3.3460                 1.5570
 Frc consts  --      1.9179                 2.0892                 1.0013
 IR Inten    --      0.3763                39.1899                 3.2652

                     58                     59                     60
                      A                      A                      A
 Frequencies --   1057.0347              1068.5647              1090.1419
 Red. masses --      3.0257                 4.5755                 5.0632
 Frc consts  --      1.9919                 3.0782                 3.5452
 IR Inten    --      0.6547                31.0902                23.9283

                     61                     62                     63
                      A                      A                      A
 Frequencies --   1129.8981              1136.8973              1148.2713
 Red. masses --      1.5182                 1.7700                 1.4716
 Frc consts  --      1.1420                 1.3479                 1.1432
 IR Inten    --      4.0567                19.2770                39.8694

                     64                     65                     66
                      A                      A                      A
 Frequencies --   1164.6419              1176.5550              1183.0914
 Red. masses --      1.9673                 1.3045                 2.2995
 Frc consts  --      1.5722                 1.0639                 1.8964
 IR Inten    --     16.3114               256.7904               103.1127

                     67                     68                     69
                      A                      A                      A
 Frequencies --   1199.2729              1228.5913              1270.7543
 Red. masses --      4.7026                 1.7504                 2.3372
 Frc consts  --      3.9849                 1.5567                 2.2237
 IR Inten    --    133.0351                42.0582                12.1530

                     70                     71                     72
                      A                      A                      A
 Frequencies --   1303.3829              1315.6716              1333.3679
 Red. masses --      3.5996                 3.5716                 3.5465
 Frc consts  --      3.6029                 3.6425                 3.7149
 IR Inten    --    112.0189                59.0251               161.8061

                     73                     74                     75
                      A                      A                      A
 Frequencies --   1370.1628              1388.9476              1392.9120
 Red. masses --      2.3898                 8.5206                 1.7009
 Frc consts  --      2.6434                 9.6848                 1.9444
 IR Inten    --    235.1312               222.9988                31.4609

                     76                     77                     78
                      A                      A                      A
 Frequencies --   1395.5803              1423.3142              1442.6470
 Red. masses --      2.5686                 1.2771                 1.0402
 Frc consts  --      2.9475                 1.5243                 1.2755
 IR Inten    --     30.8396                 4.1666                11.3255

                     79                     80                     81
                      A                      A                      A
 Frequencies --   1448.6209              1452.5726              1458.3640
 Red. masses --      2.7051                 1.1154                 1.0883
 Frc consts  --      3.3446                 1.3866                 1.3637
 IR Inten    --     21.2772                 4.5047                 5.3961

                     82                     83                     84
                      A                      A                      A
 Frequencies --   1464.0060              1477.4348              1498.1711
 Red. masses --      1.0824                 3.6267                 5.6770
 Frc consts  --      1.3669                 4.6642                 7.5075
 IR Inten    --     18.7798                 1.5965               541.5358

                     85                     86                     87
                      A                      A                      A
 Frequencies --   1518.7108              1543.2599              1595.8847
 Red. masses --      5.9426                 4.3456                 4.7695
 Frc consts  --      8.0757                 6.0979                 7.1570
 IR Inten    --    304.7958               153.6385               738.2362

                     88                     89                     90
                      A                      A                      A
 Frequencies --   1626.0716              1662.2092              1674.3321
 Red. masses --      6.1330                 5.2103                 7.1531
 Frc consts  --      9.5544                 8.4817                11.8148
 IR Inten    --    101.3213               364.4787               220.1661

                     91                     92                     93
                      A                      A                      A
 Frequencies --   1679.8418              1727.6040              3011.3231
 Red. masses --      6.2798                10.1452                 1.0411
 Frc consts  --     10.4408                17.8403                 5.5625
 IR Inten    --     65.6143               243.5968                28.8197

                     94                     95                     96
                      A                      A                      A
 Frequencies --   3043.2111              3112.9777              3122.4094
 Red. masses --      1.0378                 1.0973                 1.1017
 Frc consts  --      5.6628                 6.2652                 6.3286
 IR Inten    --     19.0057                11.8058                 3.9172

                     97                     98                     99
                      A                      A                      A
 Frequencies --   3153.9662              3167.0734              3167.4362
 Red. masses --      1.1026                 1.0909                 1.1036
 Frc consts  --      6.4623                 6.4472                 6.5234
 IR Inten    --      5.1347                17.4816                 1.0094

                    100                    101                    102
                      A                      A                      A
 Frequencies --   3202.2135              3206.5615              3306.2703
 Red. masses --      1.0928                 1.0934                 1.0998
 Frc consts  --      6.6025                 6.6238                 7.0833
 IR Inten    --      4.2164                 1.0941                10.3146

                    103                    104                    105
                      A                      A                      A
 Frequencies --   3312.5321              3575.8790              3877.8257
 Red. masses --      1.0689                 1.0771                 1.0664
 Frc consts  --      6.9106                 8.1146                 9.4484
 IR Inten    --    464.7719                76.3345               181.5191

 - Thermochemistry -
 -------------------
 Temperature   298.150 Kelvin.  Pressure   1.00000 Atm.
 Atom     1 has atomic number  6 and mass  12.00000

 Molecular mass:   351.05251 amu.
 Principal axes and moments of inertia in atomic units:
                           1         2         3
     Eigenvalues --  2899.87515********************
           X            0.99999   0.00250  -0.00235
           Y           -0.00254   0.99988  -0.01529
           Z            0.00231   0.01529   0.99988
 This molecule is an asymmetric top.
 Rotational symmetry number  1.
 Warning -- assumption of classical behavior for rotation
           may cause significant error
 Rotational temperatures (Kelvin)      0.02987     0.00516     0.00462
 Rotational constants (GHZ):           0.62235     0.10743     0.09618
 Zero-point vibrational energy     712475.0 (Joules/Mol)
                                  170.28561 (Kcal/Mol)
 Warning -- explicit consideration of  34 degrees of freedom as
           vibrations may cause significant error
 Vibrational temperatures:     33.47    55.96    80.12    93.36   130.34
          (Kelvin)            132.56   164.97   173.22   209.31   217.94
                              242.76   266.65   272.74   311.80   332.33
                              389.54   410.84   436.69   470.79   497.47
                              518.49   528.85   549.46   554.66   587.37
                              604.54   620.11   642.85   683.26   741.81
                              770.10   802.30   832.48   891.59   898.05
                              910.32   941.55   960.11   977.05  1017.82
                             1021.46  1059.65  1074.81  1122.64  1167.30
                             1170.12  1200.65  1226.04  1254.73  1278.64
                             1337.12  1367.72  1386.92  1387.80  1455.71
                             1481.13  1503.17  1520.84  1537.43  1568.47
                             1625.67  1635.74  1652.11  1675.66  1692.80
                             1702.20  1725.49  1767.67  1828.33  1875.28
                             1892.96  1918.42  1971.36  1998.39  2004.09
                             2007.93  2047.83  2075.65  2084.24  2089.93
                             2098.26  2106.38  2125.70  2155.53  2185.09
                             2220.41  2296.12  2339.55  2391.55  2408.99
                             2416.92  2485.64  4332.62  4378.50  4478.88
                             4492.45  4537.85  4556.71  4557.23  4607.27
                             4613.53  4756.99  4765.99  5144.89  5579.33

 Zero-point correction=                           0.271367 (Hartree/Particle)
 Thermal correction to Energy=                    0.292531
 Thermal correction to Enthalpy=                  0.293475
 Thermal correction to Gibbs Free Energy=         0.220851
 Sum of electronic and zero-point Energies=          -1554.098286
 Sum of electronic and thermal Energies=             -1554.077122
 Sum of electronic and thermal Enthalpies=           -1554.076178
 Sum of electronic and thermal Free Energies=        -1554.148802

                     E (Thermal)             CV                S
                      KCal/Mol        Cal/Mol-Kelvin    Cal/Mol-Kelvin
 Total                  183.566             81.127            152.851
 Electronic               0.000              0.000              0.000
 Translational            0.889              2.981             43.461
 Rotational               0.889              2.981             35.168
 Vibrational            181.789             75.166             74.222
 Vibration     1          0.593              1.985              6.334
 Vibration     2          0.594              1.981              5.315
 Vibration     3          0.596              1.975              4.604
 Vibration     4          0.597              1.971              4.303
 Vibration     5          0.602              1.956              3.647
 Vibration     6          0.602              1.955              3.614
 Vibration     7          0.608              1.937              3.188
 Vibration     8          0.609              1.932              3.094
 Vibration     9          0.617              1.908              2.731
 Vibration    10          0.619              1.901              2.654
 Vibration    11          0.625              1.881              2.450
 Vibration    12          0.631              1.860              2.274
 Vibration    13          0.633              1.854              2.232
 Vibration    14          0.646              1.816              1.986
 Vibration    15          0.653              1.794              1.871
 Vibration    16          0.674              1.727              1.591
 Vibration    17          0.683              1.701              1.500
 Vibration    18          0.695              1.667              1.397
 Vibration    19          0.711              1.621              1.274
 Vibration    20          0.724              1.584              1.185
 Vibration    21          0.735              1.554              1.121
 Vibration    22          0.740              1.539              1.090
 Vibration    23          0.751              1.509              1.032
 Vibration    24          0.754              1.501              1.017
 Vibration    25          0.773              1.452              0.933
 Vibration    26          0.783              1.426              0.891
 Vibration    27          0.792              1.403              0.855
 Vibration    28          0.806              1.368              0.805
 Vibration    29          0.832              1.306              0.724
 Vibration    30          0.871              1.215              0.620
 Vibration    31          0.890              1.172              0.576
 Vibration    32          0.913              1.123              0.529
 Vibration    33          0.935              1.078              0.488
 Vibration    34          0.980              0.990              0.417

 Optimization completed.
    -- Stationary point found.
 Normal termination of Gaussian 16 at Tue May 16 08:27:46 2023.
