 Gaussian 16, Revision C.01,
 Gaussian 16:  ES64L-G16RevC.01  3-Jul-2019

 --------------------------
 # opt freq 6-31+g(d,p) m06
 --------------------------

 ----
 I-M2
 ----
 Symbolic Z-matrix:
 Charge =  0 Multiplicity = 1

 SCF Done:  E(RM06) =  -1554.36086059     A.U. after   17 cycles
 SCF Done:  E(RM06) =  -1554.36480772     A.U. after   15 cycles
 SCF Done:  E(RM06) =  -1554.36999072     A.U. after   15 cycles
 SCF Done:  E(RM06) =  -1554.37314933     A.U. after   14 cycles
 SCF Done:  E(RM06) =  -1554.37292268     A.U. after   14 cycles
 SCF Done:  E(RM06) =  -1554.37379043     A.U. after   14 cycles
 SCF Done:  E(RM06) =  -1554.37386562     A.U. after   13 cycles
 SCF Done:  E(RM06) =  -1554.37388654     A.U. after   12 cycles
 SCF Done:  E(RM06) =  -1554.37388964     A.U. after   11 cycles
 SCF Done:  E(RM06) =  -1554.37389016     A.U. after   10 cycles
 SCF Done:  E(RM06) =  -1554.37389021     A.U. after    9 cycles
 Optimization completed.
    -- Stationary point found.
 Normal termination of Gaussian 16 at Tue May 16 07:38:53 2023.

 ---------------------------------------------------------------------
 #N Geom=AllCheck Guess=TCheck SCRF=Check GenChk RM06/6-31+G(d,p) Freq
 ---------------------------------------------------------------------

 Structure from the checkpoint file:  "/home/user/SOFTWARE/gauss/scratch/Gau-78304.chk"
 ----
 I-M2
 ----
 Charge =  0 Multiplicity = 1

                         Standard orientation:
 ---------------------------------------------------------------------
 Center     Atomic      Atomic             Coordinates (Angstroms)
 Number     Number       Type             X           Y           Z
 ---------------------------------------------------------------------
      1          6           0       -2.930503   -0.565376   -0.163104
      2          6           0       -4.242000   -0.986385   -0.093550
      3          6           0       -5.236356   -0.018438    0.077234
      4          6           0       -4.905719    1.320890    0.163115
      5          6           0       -3.571525    1.743407    0.095420
      6          6           0       -2.543246    0.786981   -0.051722
      7          1           0       -4.478006   -2.043927   -0.170469
      8          1           0       -6.278903   -0.319582    0.136666
      9          1           0       -5.665925    2.087269    0.287226
     10          6           0       -1.126545    1.142437   -0.056472
     11          6           0       -0.128749    0.232415    0.177454
     12         16           0       -1.648793   -1.763578   -0.469945
     13          8           0       -1.210071   -1.645750   -1.847616
     14          8           0       -2.049976   -3.040677    0.094592
     15          7           0       -0.421235   -1.128880    0.500675
     16          6           0       -0.544368   -1.415770    1.940951
     17          1           0        0.387518   -1.105072    2.423235
     18          1           0       -1.381280   -0.867153    2.397466
     19          1           0       -0.682313   -2.488733    2.085677
     20          8           0       -0.851796    2.423109   -0.330304
     21          1           0        0.144604    2.527236   -0.279377
     22          6           0        1.270856    0.630351    0.061484
     23          8           0        1.603199    1.819372   -0.093588
     24          7           0        2.174718   -0.383423    0.140099
     25          1           0        1.804834   -1.330042    0.169069
     26          6           0        3.553766   -0.255823    0.068333
     27          7           0        4.268192   -1.357136    0.156674
     28          6           0        5.618808    0.402227   -0.083537
     29          6           0        4.354592    0.905821   -0.084477
     30          6           0        6.957331    1.017620   -0.206341
     31          1           0        7.568278    0.800953    0.676651
     32          1           0        7.487428    0.624850   -1.080751
     33          1           0        6.865204    2.101196   -0.311052
     34          8           0        5.581221   -0.933780    0.057898
     35          1           0        4.029853    1.929475   -0.183531
     36          8           0       -3.361230    3.062869    0.202585
     37          1           0       -2.421147    3.263565    0.048894
 ---------------------------------------------------------------------

 SCF Done:  E(RM06) =  -1554.37389021     A.U. after    1 cycles

 The electronic state is 1-A.
 Alpha  occ. eigenvalues --  -89.31262 -19.33802 -19.31013 -19.29535 -19.25937
 Alpha  occ. eigenvalues --  -19.25558 -19.25168 -14.48265 -14.48045 -14.46810
 Alpha  occ. eigenvalues --  -10.40775 -10.38740 -10.37159 -10.35143 -10.34822
 Alpha  occ. eigenvalues --  -10.32664 -10.32574 -10.31931 -10.31503 -10.30589
 Alpha  occ. eigenvalues --  -10.29985 -10.29518 -10.28368 -10.27463  -8.27884
 Alpha  occ. eigenvalues --   -6.19704  -6.19606  -6.19498  -1.18612  -1.16781
 Alpha  occ. eigenvalues --   -1.14661  -1.12073  -1.09896  -1.05945  -1.00658
 Alpha  occ. eigenvalues --   -0.98964  -0.91621  -0.88845  -0.84060  -0.83708
 Alpha  occ. eigenvalues --   -0.81445  -0.79396  -0.75065  -0.75033  -0.72344
 Alpha  occ. eigenvalues --   -0.69488  -0.68248  -0.65701  -0.63591  -0.61878
 Alpha  occ. eigenvalues --   -0.61768  -0.59769  -0.58723  -0.55756  -0.54285
 Alpha  occ. eigenvalues --   -0.53659  -0.53348  -0.52723  -0.51529  -0.51026
 Alpha  occ. eigenvalues --   -0.50438  -0.49984  -0.49078  -0.48305  -0.47817
 Alpha  occ. eigenvalues --   -0.47149  -0.46435  -0.46038  -0.44715  -0.44385
 Alpha  occ. eigenvalues --   -0.43794  -0.43711  -0.43137  -0.42781  -0.41869
 Alpha  occ. eigenvalues --   -0.40967  -0.40141  -0.39802  -0.38032  -0.37796
 Alpha  occ. eigenvalues --   -0.36586  -0.35446  -0.34283  -0.33899  -0.33277
 Alpha  occ. eigenvalues --   -0.31870  -0.30181  -0.29529  -0.28572  -0.27690
 Alpha  occ. eigenvalues --   -0.25912
 Alpha virt. eigenvalues --   -0.09238  -0.04316  -0.03313  -0.02751  -0.02405
 Alpha virt. eigenvalues --   -0.02217  -0.02131  -0.01098  -0.00761  -0.00620
 Alpha virt. eigenvalues --   -0.00313   0.00323   0.00743   0.00902   0.01138

 Mulliken charges:
               1
     1  C   -1.900526
     2  C    0.203412
     3  C   -0.067837
     4  C    0.546017
     5  C   -0.378457
     6  C    1.124690
     7  H    0.186383
     8  H    0.168597
     9  H    0.170058
    10  C    0.468924
    11  C   -0.404427
    12  S    1.256912
    13  O   -0.410461
    14  O   -0.498157
    15  N   -0.624306
    16  C   -0.121524
    17  H    0.171287
    18  H    0.174400
    19  H    0.205257
    20  O   -0.624196
    21  H    0.468107
    22  C    0.496666
    23  O   -0.642397
    24  N   -0.282826
    25  H    0.346834
    26  C    0.206412
    27  N   -0.530567
    28  C   -0.346304
    29  C    0.459748
    30  C   -0.592841
    31  H    0.192254
    32  H    0.193782
    33  H    0.178122
    34  O    0.110523
    35  H    0.189932
    36  O   -0.519458
    37  H    0.425967
 Sum of Mulliken charges =  -0.00000

 Dipole moment (field-independent basis, Debye):
    X=             -0.4678    Y=              3.7454    Z=              2.8492  Tot=              4.7291
 Quadrupole moment (field-independent basis, Debye-Ang):
   XX=           -113.7550   YY=           -158.0558   ZZ=           -148.6412
   XY=             12.2782   XZ=             -4.0618   YZ=             -4.9736

  Exact polarizability:     358.494     -13.244     220.648      -1.605      -3.474     135.717
 Approx polarizability:     446.808     -25.560     376.236      -4.580      -8.152     211.542

                      1                      2                      3
                      A                      A                      A
 Frequencies --     26.0605                36.8991                56.6883
 Red. masses --      6.0608                 4.8712                 6.4736
 Frc consts  --      0.0024                 0.0039                 0.0123
 IR Inten    --      0.9563                 3.2223                 0.3777

                      4                      5                      6
                      A                      A                      A
 Frequencies --     70.3710                78.8102                89.0446
 Red. masses --      4.4018                 3.9062                 1.3854
 Frc consts  --      0.0128                 0.0143                 0.0065
 IR Inten    --      0.4819                 1.5730                 2.5463

                      7                      8                      9
                      A                      A                      A
 Frequencies --    106.3125               123.7924               142.7552
 Red. masses --      5.2677                 6.3876                 4.8498
 Frc consts  --      0.0351                 0.0577                 0.0582
 IR Inten    --      3.8717                 2.4329                 1.1393

                     10                     11                     12
                      A                      A                      A
 Frequencies --    157.1458               176.5671               186.3194
 Red. masses --      6.0590                 3.6941                 1.3101
 Frc consts  --      0.0882                 0.0679                 0.0268
 IR Inten    --      5.3866                 4.4061                 0.1983

                     13                     14                     15
                      A                      A                      A
 Frequencies --    206.5674               217.2155               242.1726
 Red. masses --      6.4949                 3.5983                 4.8116
 Frc consts  --      0.1633                 0.1000                 0.1663
 IR Inten    --      1.6694                 0.7089                 0.2212

                     16                     17                     18
                      A                      A                      A
 Frequencies --    269.9537               283.8780               299.4501
 Red. masses --      3.9215                 5.1766                 5.6753
 Frc consts  --      0.1684                 0.2458                 0.2998
 IR Inten    --      0.4329                 4.4269                 2.2180

                     19                     20                     21
                      A                      A                      A
 Frequencies --    312.2924               356.7976               369.3735
 Red. masses --      7.2542                 7.4682                 7.9868
 Frc consts  --      0.4168                 0.5602                 0.6420
 IR Inten    --      6.1281                 5.9142                 2.6424

                     22                     23                     24
                      A                      A                      A
 Frequencies --    383.8838               390.0658               404.1680
 Red. masses --      7.1818                 6.8168                 5.9313
 Frc consts  --      0.6236                 0.6111                 0.5709
 IR Inten    --      1.8367                 1.4609                 3.5097

                     25                     26                     27
                      A                      A                      A
 Frequencies --    417.9406               446.1214               482.9997
 Red. masses --      6.4235                 6.1860                 5.6496
 Frc consts  --      0.6611                 0.7254                 0.7765
 IR Inten    --     15.0121                 1.7879                 1.0096

                     28                     29                     30
                      A                      A                      A
 Frequencies --    499.2240               513.8378               526.9646
 Red. masses --      4.9470                 7.5138                 7.8934
 Frc consts  --      0.7264                 1.1689                 1.2915
 IR Inten    --      4.5520                 6.3986                23.5002

                     31                     32                     33
                      A                      A                      A
 Frequencies --    551.4939               596.2609               613.8546
 Red. masses --      9.7476                 5.5376                 5.5565
 Frc consts  --      1.7468                 1.1600                 1.2336
 IR Inten    --     40.1553                 3.7121                 6.9951

                     34                     35                     36
                      A                      A                      A
 Frequencies --    622.4763               625.1542               627.4410
 Red. masses --      5.6711                 4.2860                 1.2586
 Frc consts  --      1.2947                 0.9869                 0.2919
 IR Inten    --     15.6395                 3.6046                83.9540

                     37                     38                     39
                      A                      A                      A
 Frequencies --    637.5234               662.7219               674.1129
 Red. masses --      5.3277                 3.7262                 1.2181
 Frc consts  --      1.2758                 0.9642                 0.3261
 IR Inten    --     59.8146                 5.8235                61.0492

                     40                     41                     42
                      A                      A                      A
 Frequencies --    706.8230               717.2937               751.8910
 Red. masses --      4.3132                 6.9787                 4.5434
 Frc consts  --      1.2696                 2.1155                 1.5133
 IR Inten    --      3.5271                83.6814                14.6066

                     43                     44                     45
                      A                      A                      A
 Frequencies --    767.2653               781.6061               806.1340
 Red. masses --      6.5834                 4.5253                 1.7829
 Frc consts  --      2.2835                 1.6288                 0.6827
 IR Inten    --      2.3339                14.6301                36.0754

                     46                     47                     48
                      A                      A                      A
 Frequencies --    808.5308               814.9686               848.4301
 Red. masses --      1.3830                 4.4587                 4.7166
 Frc consts  --      0.5327                 1.7448                 2.0004
 IR Inten    --     33.2205                26.3039                24.3061

                     49                     50                     51
                      A                      A                      A
 Frequencies --    897.7987               909.1259               934.5580
 Red. masses --      1.0972                 1.3893                 5.5378
 Frc consts  --      0.5211                 0.6765                 2.8497
 IR Inten    --     93.5984                 0.4539                52.5928

                     52                     53                     54
                      A                      A                      A
 Frequencies --    950.4644               964.6798               988.9051
 Red. masses --      4.1046                 2.4321                 1.3123
 Frc consts  --      2.1847                 1.3335                 0.7561
 IR Inten    --     22.7724                 5.2662                 0.5928

                     55                     56                     57
                      A                      A                      A
 Frequencies --   1013.5122              1029.3914              1044.9536
 Red. masses --      3.3212                 3.3841                 1.5572
 Frc consts  --      2.0100                 2.1128                 1.0018
 IR Inten    --      0.5095                35.9310                 3.3167

                     58                     59                     60
                      A                      A                      A
 Frequencies --   1068.4709              1077.7100              1093.6405
 Red. masses --      5.2420                 2.8688                 3.1690
 Frc consts  --      3.5259                 1.9632                 2.2332
 IR Inten    --     35.2277                18.7121                22.4455

                     61                     62                     63
                      A                      A                      A
 Frequencies --   1129.8971              1140.2126              1153.8240
 Red. masses --      1.3902                 1.9558                 1.6787
 Frc consts  --      1.0457                 1.4981                 1.3167
 IR Inten    --      8.1604                10.8243                22.9920

                     64                     65                     66
                      A                      A                      A
 Frequencies --   1163.2877              1168.8756              1192.5330
 Red. masses --      2.0225                 1.6743                 3.3262
 Frc consts  --      1.6126                 1.3478                 2.7870
 IR Inten    --      5.5586               136.5413               106.0778

                     67                     68                     69
                      A                      A                      A
 Frequencies --   1207.2866              1235.2856              1290.1560
 Red. masses --      2.3185                 2.1870                 3.8897
 Frc consts  --      1.9910                 1.9662                 3.8146
 IR Inten    --     43.1623                48.7966                98.9163

                     70                     71                     72
                      A                      A                      A
 Frequencies --   1304.8075              1315.3036              1357.4205
 Red. masses --      3.9174                 3.6042                 1.6855
 Frc consts  --      3.9295                 3.6737                 1.8298
 IR Inten    --    239.3848                37.9352                 0.7471

                     73                     74                     75
                      A                      A                      A
 Frequencies --   1380.0562              1387.6745              1394.2676
 Red. masses --      2.4852                 7.1878                 1.3830
 Frc consts  --      2.7887                 8.1550                 1.5840
 IR Inten    --    167.4653               206.9767                 3.3412

                     76                     77                     78
                      A                      A                      A
 Frequencies --   1403.4048              1417.1008              1430.9447
 Red. masses --      5.1372                 1.5125                 1.8306
 Frc consts  --      5.9613                 1.7895                 2.2085
 IR Inten    --     60.4823                42.6156                21.2478

                     79                     80                     81
                      A                      A                      A
 Frequencies --   1442.2850              1452.2395              1456.3174
 Red. masses --      1.0400                 1.1160                 1.0559
 Frc consts  --      1.2747                 1.3867                 1.3195
 IR Inten    --     11.4482                 5.2879                 4.7218

                     82                     83                     84
                      A                      A                      A
 Frequencies --   1464.2063              1489.7113              1502.6711
 Red. masses --      1.0704                 4.0741                 3.7880
 Frc consts  --      1.3521                 5.3270                 5.0395
 IR Inten    --     27.4791               306.1884                87.2558

                     85                     86                     87
                      A                      A                      A
 Frequencies --   1515.8175              1522.3050              1595.8951
 Red. masses --      6.0931                 4.5418                 4.6743
 Frc consts  --      8.2487                 6.2013                 7.0142
 IR Inten    --    476.1631                55.0802               735.2865

                     88                     89                     90
                      A                      A                      A
 Frequencies --   1624.1379              1659.1548              1673.5677
 Red. masses --      5.6663                 4.6117                 7.0814
 Frc consts  --      8.8064                 7.4798                11.6858
 IR Inten    --     26.1603               553.9456                33.2166

                     91                     92                     93
                      A                      A                      A
 Frequencies --   1681.7706              1723.4150              3012.3485
 Red. masses --      5.6140                 9.4503                 1.0405
 Frc consts  --      9.3552                16.5378                 5.5630
 IR Inten    --     75.9592               277.7214                27.3129

                     94                     95                     96
                      A                      A                      A
 Frequencies --   3043.9679              3112.6460              3123.6027
 Red. masses --      1.0378                 1.0981                 1.1018
 Frc consts  --      5.6655                 6.2682                 6.3337
 IR Inten    --     17.9322                10.2668                 3.5516

                     97                     98                     99
                      A                      A                      A
 Frequencies --   3151.5646              3154.9663              3167.1954
 Red. masses --      1.0720                 1.1026                 1.1036
 Frc consts  --      6.2734                 6.4666                 6.5223
 IR Inten    --    621.9134                 5.0019                 1.0146

                    100                    101                    102
                      A                      A                      A
 Frequencies --   3188.0348              3202.8013              3209.8896
 Red. masses --      1.0878                 1.0936                 1.0965
 Frc consts  --      6.5137                 6.6096                 6.6562
 IR Inten    --      3.7408                 2.4454                 4.1623

                    103                    104                    105
                      A                      A                      A
 Frequencies --   3302.7915              3570.1269              3711.3048
 Red. masses --      1.1005                 1.0771                 1.0655
 Frc consts  --      7.0730                 8.0885                 8.6470
 IR Inten    --      7.2486                79.2214               244.1841

 - Thermochemistry -
 -------------------
 Temperature   298.150 Kelvin.  Pressure   1.00000 Atm.
 Atom     1 has atomic number  6 and mass  12.00000

 Molecular mass:   351.05251 amu.
 Principal axes and moments of inertia in atomic units:
                           1         2         3
     Eigenvalues --  3486.82935********************
           X            0.99997   0.00765  -0.00289
           Y           -0.00769   0.99985  -0.01525
           Z            0.00277   0.01527   0.99988
 This molecule is an asymmetric top.
 Rotational symmetry number  1.
 Warning -- assumption of classical behavior for rotation
           may cause significant error
 Rotational temperatures (Kelvin)      0.02484     0.00578     0.00495
 Rotational constants (GHZ):           0.51759     0.12051     0.10308
 Zero-point vibrational energy     713500.3 (Joules/Mol)
                                  170.53067 (Kcal/Mol)
 Warning -- explicit consideration of  33 degrees of freedom as
           vibrations may cause significant error
 Vibrational temperatures:     37.50    53.09    81.56   101.25   113.39
          (Kelvin)            128.12   152.96   178.11   205.39   226.10
                              254.04   268.07   297.20   312.52   348.43
                              388.40   408.44   430.84   449.32   513.35
                              531.45   552.32   561.22   581.51   601.32
                              641.87   694.93   718.27   739.30   758.18
                              793.48   857.89   883.20   895.60   899.46
                              902.75   917.25   953.51   969.90  1016.96
                             1032.03  1081.80  1103.92  1124.56  1159.85
                             1163.30  1172.56  1220.70  1291.73  1308.03
                             1344.62  1367.51  1387.96  1422.81  1458.22
                             1481.06  1503.46  1537.29  1550.58  1573.50
                             1625.67  1640.51  1660.10  1673.71  1681.75
                             1715.79  1737.02  1777.30  1856.25  1877.33
                             1892.43  1953.03  1985.59  1996.55  2006.04
                             2019.19  2038.89  2058.81  2075.13  2089.45
                             2095.32  2106.67  2143.36  2162.01  2180.92
                             2190.26  2296.14  2336.77  2387.15  2407.89
                             2419.69  2479.61  4334.10  4379.59  4478.40
                             4494.17  4534.40  4539.29  4556.89  4586.87
                             4608.12  4618.32  4751.98  5136.62  5339.74

 Zero-point correction=                           0.271758 (Hartree/Particle)
 Thermal correction to Energy=                    0.292621
 Thermal correction to Enthalpy=                  0.293565
 Thermal correction to Gibbs Free Energy=         0.221485
 Sum of electronic and zero-point Energies=          -1554.102132
 Sum of electronic and thermal Energies=             -1554.081269
 Sum of electronic and thermal Enthalpies=           -1554.080325
 Sum of electronic and thermal Free Energies=        -1554.152405

                     E (Thermal)             CV                S
                      KCal/Mol        Cal/Mol-Kelvin    Cal/Mol-Kelvin
 Total                  183.622             80.248            151.704
 Electronic               0.000              0.000              0.000
 Translational            0.889              2.981             43.461
 Rotational               0.889              2.981             35.168
 Vibrational            181.845             74.286             73.075
 Vibration     1          0.593              1.985              6.109
 Vibration     2          0.594              1.982              5.419
 Vibration     3          0.596              1.975              4.569
 Vibration     4          0.598              1.968              4.143
 Vibration     5          0.600              1.963              3.920
 Vibration     6          0.602              1.957              3.681
 Vibration     7          0.605              1.944              3.335
 Vibration     8          0.610              1.929              3.040
 Vibration     9          0.616              1.910              2.767
 Vibration    10          0.621              1.895              2.584
 Vibration    11          0.628              1.871              2.364
 Vibration    12          0.632              1.859              2.264
 Vibration    13          0.641              1.831              2.074
 Vibration    14          0.646              1.815              1.982
 Vibration    15          0.658              1.776              1.787
 Vibration    16          0.674              1.729              1.597
 Vibration    17          0.682              1.704              1.510
 Vibration    18          0.692              1.675              1.420
 Vibration    19          0.701              1.650              1.350
 Vibration    20          0.732              1.561              1.136
 Vibration    21          0.742              1.535              1.082
 Vibration    22          0.753              1.505              1.024
 Vibration    23          0.758              1.491              1.000
 Vibration    24          0.769              1.461              0.947
 Vibration    25          0.781              1.431              0.899
 Vibration    26          0.805              1.369              0.808
 Vibration    27          0.839              1.288              0.702
 Vibration    28          0.855              1.252              0.660
 Vibration    29          0.869              1.219              0.624
 Vibration    30          0.882              1.190              0.594
 Vibration    31          0.907              1.136              0.541
 Vibration    32          0.954              1.040              0.456
 Vibration    33          0.973              1.003              0.426

 Optimization completed.
    -- Stationary point found.
 Normal termination of Gaussian 16 at Tue May 16 08:42:32 2023.
