 Gaussian 16, Revision C.01,
 Gaussian 16:  ES64L-G16RevC.01  3-Jul-2019

 --------------------------
 # opt freq m06/6-31+g(d,p)
 --------------------------

 --------
 Isoxicam
 --------
 Symbolic Z-matrix:
 Charge =  0 Multiplicity = 1

 SCF Done:  E(RM06) =  -1479.16670513     A.U. after   16 cycles
 SCF Done:  E(RM06) =  -1479.16806592     A.U. after   13 cycles
 SCF Done:  E(RM06) =  -1479.16817435     A.U. after   14 cycles
 SCF Done:  E(RM06) =  -1479.16847527     A.U. after   13 cycles
 SCF Done:  E(RM06) =  -1479.16847658     A.U. after   12 cycles
 SCF Done:  E(RM06) =  -1479.16849237     A.U. after   13 cycles
 SCF Done:  E(RM06) =  -1479.16849426     A.U. after   11 cycles
 SCF Done:  E(RM06) =  -1479.16849536     A.U. after   11 cycles
 SCF Done:  E(RM06) =  -1479.16849552     A.U. after   10 cycles
 Optimization completed.
    -- Stationary point found.
 Normal termination of Gaussian 16 at Mon May 23 21:58:25 2022.

 ---------------------------------------------------------------------
 #N Geom=AllCheck Guess=TCheck SCRF=Check GenChk RM06/6-31+G(d,p) Freq
 ---------------------------------------------------------------------

 Structure from the checkpoint file:  "/home/user/gaussian/scratch/Gau-2318359.chk"
 --------
 Isoxicam
 --------
 Charge =  0 Multiplicity = 1

                         Standard orientation:
 ---------------------------------------------------------------------
 Center     Atomic      Atomic             Coordinates (Angstroms)
 Number     Number       Type             X           Y           Z
 ---------------------------------------------------------------------
      1          6           0       -3.098007   -0.275499   -0.146862
      2          6           0       -4.445792   -0.596026   -0.097961
      3          6           0       -5.374198    0.427261    0.074677
      4          6           0       -4.944761    1.747869    0.190277
      5          6           0       -3.590250    2.058590    0.151763
      6          6           0       -2.642744    1.044344   -0.006799
      7          1           0       -4.754851   -1.634040   -0.193689
      8          1           0       -6.434546    0.192607    0.115283
      9          1           0       -5.673486    2.544159    0.317463
     10          1           0       -3.249437    3.085383    0.248983
     11          6           0       -1.208229    1.349557   -0.016675
     12          6           0       -0.257033    0.383070    0.184438
     13         16           0       -1.886158   -1.539543   -0.464455
     14          8           0       -1.462781   -1.448168   -1.848846
     15          8           0       -2.350088   -2.792883    0.106895
     16          7           0       -0.616100   -0.969118    0.489651
     17          6           0       -0.725886   -1.270929    1.927933
     18          1           0        0.227601   -1.008014    2.396092
     19          1           0       -1.528297   -0.690869    2.407316
     20          1           0       -0.909014   -2.338376    2.062800
     21          8           0       -0.910954    2.619516   -0.254694
     22          1           0        0.079459    2.699140   -0.213890
     23          6           0        1.162088    0.713207    0.075600
     24          8           0        1.553129    1.884878   -0.047724
     25          7           0        2.015069   -0.349066    0.122458
     26          1           0        1.600571   -1.277117    0.126214
     27          6           0        3.397820   -0.283988    0.049877
     28          7           0        4.062891   -1.418077    0.103036
     29          6           0        5.490051    0.286626   -0.087228
     30          6           0        4.249606    0.845270   -0.069912
     31          6           0        6.854195    0.846400   -0.194389
     32          1           0        7.456061    0.576813    0.680255
     33          1           0        7.365954    0.457797   -1.081518
     34          1           0        6.809122    1.935664   -0.266041
     35          8           0        5.394054   -1.050293    0.013703
     36          1           0        3.968335    1.884452   -0.137094
 ---------------------------------------------------------------------

 SCF Done:  E(RM06) =  -1479.16849552     A.U. after    1 cycles

 The electronic state is 1-A.
 Alpha  occ. eigenvalues --  -89.31142 -19.33457 -19.29587 -19.25797 -19.25409
 Alpha  occ. eigenvalues --  -19.24504 -14.47815 -14.47774 -14.46450 -10.40205
 Alpha  occ. eigenvalues --  -10.37849 -10.34773 -10.34494 -10.32477 -10.32115
 Alpha  occ. eigenvalues --  -10.32033 -10.31287 -10.30773 -10.30503 -10.30407
 Alpha  occ. eigenvalues --  -10.30335 -10.28122 -10.27107  -8.27757  -6.19575
 Alpha  occ. eigenvalues --   -6.19480  -6.19374  -1.18239  -1.16613  -1.13238
 Alpha  occ. eigenvalues --   -1.09343  -1.05781  -1.00205  -0.98580  -0.91976
 Alpha  occ. eigenvalues --   -0.88448  -0.83635  -0.83355  -0.81612  -0.79621
 Alpha  occ. eigenvalues --   -0.74744  -0.74718  -0.71803  -0.68678  -0.67530
 Alpha  occ. eigenvalues --   -0.64906  -0.63151  -0.61297  -0.60874  -0.59038
 Alpha  occ. eigenvalues --   -0.57063  -0.54100  -0.53787  -0.52815  -0.52495
 Alpha  occ. eigenvalues --   -0.51177  -0.50452  -0.50061  -0.49233  -0.48702
 Alpha  occ. eigenvalues --   -0.48097  -0.47872  -0.47208  -0.46211  -0.45246
 Alpha  occ. eigenvalues --   -0.44212  -0.43917  -0.43531  -0.42851  -0.42529
 Alpha  occ. eigenvalues --   -0.41830  -0.41355  -0.40597  -0.40097  -0.37913
 Alpha  occ. eigenvalues --   -0.37370  -0.36507  -0.35635  -0.34116  -0.33423
 Alpha  occ. eigenvalues --   -0.32919  -0.31530  -0.30490  -0.29687  -0.28959
 Alpha  occ. eigenvalues --   -0.27585  -0.26208
 Alpha virt. eigenvalues --   -0.08972  -0.05148  -0.03299  -0.02643  -0.02328
 Alpha virt. eigenvalues --   -0.02065  -0.01930  -0.00985  -0.00676  -0.00326
 Alpha virt. eigenvalues --   -0.00163   0.00516   0.00880   0.01196   0.01322

 Mulliken charges:
               1
     1  C   -1.292715
     2  C    0.339047
     3  C    0.034080
     4  C   -0.002685
     5  C   -0.101723
     6  C    0.787803
     7  H    0.188788
     8  H    0.165867
     9  H    0.164603
    10  H    0.179945
    11  C   -0.157631
    12  C   -0.394805
    13  S    1.251779
    14  O   -0.414733
    15  O   -0.498206
    16  N   -0.642475
    17  C   -0.130981
    18  H    0.172820
    19  H    0.172972
    20  H    0.204459
    21  O   -0.523569
    22  H    0.448013
    23  C    0.586277
    24  O   -0.646869
    25  N   -0.292361
    26  H    0.345245
    27  C    0.204716
    28  N   -0.531493
    29  C   -0.340135
    30  C    0.460090
    31  C   -0.596478
    32  H    0.191420
    33  H    0.192949
    34  H    0.177817
    35  O    0.107879
    36  H    0.190292
 Sum of Mulliken charges =  -0.00000

 Dipole moment (field-independent basis, Debye):
    X=             -1.7972    Y=              4.2651    Z=              3.1248  Tot=              5.5844
 Quadrupole moment (field-independent basis, Debye-Ang):
   XX=           -101.7547   YY=           -149.8774   ZZ=           -143.3943
   XY=              3.2570   XZ=             -5.1750   YZ=             -3.2013

  Exact polarizability:     345.778     -18.044     212.524      -1.599      -2.235     133.858
 Approx polarizability:     426.980     -28.375     363.269      -4.144      -4.999     207.847

                      1                      2                      3
                      A                      A                      A
 Frequencies --     26.6216                38.9234                60.3787
 Red. masses --      5.9217                 5.0887                 6.4615
 Frc consts  --      0.0025                 0.0045                 0.0139
 IR Inten    --      1.4920                 2.5514                 1.0067

                      4                      5                      6
                      A                      A                      A
 Frequencies --     73.4376                90.8550                93.7099
 Red. masses --      3.8339                 3.2299                 1.4406
 Frc consts  --      0.0122                 0.0157                 0.0075
 IR Inten    --      0.9974                 5.8548                 0.3604

                      7                      8                      9
                      A                      A                      A
 Frequencies --    118.6572               123.3787               147.4943
 Red. masses --      5.1850                 6.0054                 4.2241
 Frc consts  --      0.0430                 0.0539                 0.0541
 IR Inten    --      1.8269                 2.2270                 0.4249

                     10                     11                     12
                      A                      A                      A
 Frequencies --    160.0642               182.2944               192.3563
 Red. masses --      5.5997                 1.8340                 2.0299
 Frc consts  --      0.0845                 0.0359                 0.0443
 IR Inten    --      5.2403                 1.9665                 1.5095

                     13                     14                     15
                      A                      A                      A
 Frequencies --    215.9389               217.7937               260.8426
 Red. masses --      6.5340                 3.6947                 5.0885
 Frc consts  --      0.1795                 0.1033                 0.2040
 IR Inten    --      0.1187                 0.5751                 1.9110

                     16                     17                     18
                      A                      A                      A
 Frequencies --    281.9629               293.1486               324.7082
 Red. masses --      3.7528                 5.3707                 5.7676
 Frc consts  --      0.1758                 0.2719                 0.3583
 IR Inten    --      2.5296                 3.2150                 6.0817

                     19                     20                     21
                      A                      A                      A
 Frequencies --    357.6856               370.4775               382.1653
 Red. masses --      8.0737                 5.3013                 7.1993
 Frc consts  --      0.6086                 0.4287                 0.6195
 IR Inten    --      3.0288                 1.2286                 1.7786

                     22                     23                     24
                      A                      A                      A
 Frequencies --    388.0151               401.3987               416.0008
 Red. masses --      8.6438                 5.9020                 4.7538
 Frc consts  --      0.7667                 0.5603                 0.4847
 IR Inten    --      7.1801                 1.7968                 5.7483

                     25                     26                     27
                      A                      A                      A
 Frequencies --    434.2947               461.2375               513.3954
 Red. masses --      5.0879                 6.0414                 6.0428
 Frc consts  --      0.5654                 0.7572                 0.9384
 IR Inten    --      5.1837                 9.7889                 5.1656

                     28                     29                     30
                      A                      A                      A
 Frequencies --    520.4249               563.9863               571.6131
 Red. masses --      6.7066                 9.8720                 7.2553
 Frc consts  --      1.0702                 1.8501                 1.3967
 IR Inten    --     13.6105                42.9546                33.4497

                     31                     32                     33
                      A                      A                      A
 Frequencies --    591.9073               624.5610               636.0194
 Red. masses --      6.0782                 5.2645                 5.4461
 Frc consts  --      1.2547                 1.2099                 1.2980
 IR Inten    --      3.9875                 1.0358                47.1277

                     34                     35                     36
                      A                      A                      A
 Frequencies --    658.4435               666.5449               670.7264
 Red. masses --      2.7726                 3.7993                 1.6267
 Frc consts  --      0.7082                 0.9945                 0.4312
 IR Inten    --     12.3215                 4.7262                47.4123

                     37                     38                     39
                      A                      A                      A
 Frequencies --    707.4598               731.5041               751.8560
 Red. masses --      4.4666                 6.8637                 3.1113
 Frc consts  --      1.3171                 2.1639                 1.0362
 IR Inten    --      1.7936                66.9866                 1.9446

                     40                     41                     42
                      A                      A                      A
 Frequencies --    770.4011               773.0712               791.1393
 Red. masses --      3.1696                 3.6624                 2.8912
 Frc consts  --      1.1084                 1.2896                 1.0662
 IR Inten    --     34.4540                16.5030                17.0142

                     43                     44                     45
                      A                      A                      A
 Frequencies --    811.7887               816.1727               853.2121
 Red. masses --      1.3997                 3.9118                 4.6049
 Frc consts  --      0.5435                 1.5353                 1.9751
 IR Inten    --     36.0092                23.2079                31.6820

                     46                     47                     48
                      A                      A                      A
 Frequencies --    869.3145               896.4690               945.3735
 Red. masses --      1.1215                 1.3851                 3.7094
 Frc consts  --      0.4994                 0.6558                 1.9532
 IR Inten    --    104.2127                 0.4464                50.7999

                     49                     50                     51
                      A                      A                      A
 Frequencies --    963.8447               974.7122              1004.7193
 Red. masses --      2.3781                 1.3784                 1.3189
 Frc consts  --      1.3016                 0.7716                 0.7844
 IR Inten    --      8.0654                 1.2016                 0.2873

                     52                     53                     54
                      A                      A                      A
 Frequencies --   1011.6648              1029.2425              1044.7576
 Red. masses --      3.1413                 3.3829                 1.5576
 Frc consts  --      1.8942                 2.1114                 1.0017
 IR Inten    --      0.4092                35.3192                 3.2787

                     55                     56                     57
                      A                      A                      A
 Frequencies --   1059.4626              1065.4053              1074.6931
 Red. masses --      2.3904                 4.9825                 3.9834
 Frc consts  --      1.5809                 3.3322                 2.7107
 IR Inten    --      2.3421                18.2368                33.0308

                     58                     59                     60
                      A                      A                      A
 Frequencies --   1090.8638              1129.5495              1136.7252
 Red. masses --      4.7174                 1.5483                 1.8322
 Frc consts  --      3.3074                 1.1639                 1.3949
 IR Inten    --     14.7369                 5.8381                 9.1261

                     61                     62                     63
                      A                      A                      A
 Frequencies --   1144.7992              1163.7856              1166.2284
 Red. masses --      1.7540                 1.7266                 1.2417
 Frc consts  --      1.3544                 1.3778                 0.9950
 IR Inten    --     19.1457                 5.8355                 6.2688

                     64                     65                     66
                      A                      A                      A
 Frequencies --   1187.5648              1199.4337              1242.5079
 Red. masses --      2.2953                 5.9543                 2.2344
 Frc consts  --      1.9072                 5.0470                 2.0324
 IR Inten    --    122.4105               162.0609                16.3648

                     67                     68                     69
                      A                      A                      A
 Frequencies --   1276.5840              1300.9163              1315.2132
 Red. masses --      1.6946                 4.0134                 3.5885
 Frc consts  --      1.6271                 4.0018                 3.6572
 IR Inten    --      0.8852                97.1127                49.7433

                     70                     71                     72
                      A                      A                      A
 Frequencies --   1366.8488              1383.2349              1387.7829
 Red. masses --      3.0645                 3.3303                 9.0149
 Frc consts  --      3.3732                 3.7542                10.2294
 IR Inten    --    108.6087               105.2485               215.7367

                     73                     74                     75
                      A                      A                      A
 Frequencies --   1393.8612              1423.1956              1442.5605
 Red. masses --      1.3804                 1.2699                 1.0402
 Frc consts  --      1.5802                 1.5155                 1.2753
 IR Inten    --      4.7968                 6.1913                11.3887

                     76                     77                     78
                      A                      A                      A
 Frequencies --   1447.5049              1452.4211              1458.1589
 Red. masses --      2.2932                 1.1182                 1.0791
 Frc consts  --      2.8309                 1.3898                 1.3519
 IR Inten    --      3.5954                 4.9422                 5.2547

                     79                     80                     81
                      A                      A                      A
 Frequencies --   1464.0739              1469.2115              1496.7960
 Red. masses --      1.0932                 2.4369                 4.8738
 Frc consts  --      1.3807                 3.0992                 6.4334
 IR Inten    --     21.5273                 5.9871               406.3920

                     82                     83                     84
                      A                      A                      A
 Frequencies --   1515.8594              1518.8082              1596.7559
 Red. masses --      3.8005                 6.0257                 4.7491
 Frc consts  --      5.1453                 8.1896                 7.1341
 IR Inten    --     13.6394               291.8159               661.7560

                     85                     86                     87
                      A                      A                      A
 Frequencies --   1623.3871              1659.4608              1663.5000
 Red. masses --      5.9334                 6.3010                 5.6769
 Frc consts  --      9.2129                10.2234                 9.2556
 IR Inten    --     57.3274               114.5040               255.1032

                     88                     89                     90
                      A                      A                      A
 Frequencies --   1679.4242              1730.7732              3011.2251
 Red. masses --      6.2884                10.2052                 1.0411
 Frc consts  --     10.4499                18.0115                 5.5620
 IR Inten    --    118.0445               237.0110                28.2389

                     91                     92                     93
                      A                      A                      A
 Frequencies --   3043.4106              3112.6807              3122.7016
 Red. masses --      1.0378                 1.0974                 1.1017
 Frc consts  --      5.6635                 6.2647                 6.3298
 IR Inten    --     18.2384                11.8376                 3.7850

                     94                     95                     96
                      A                      A                      A
 Frequencies --   3154.2308              3167.6035              3184.0933
 Red. masses --      1.1026                 1.1036                 1.0865
 Frc consts  --      6.4634                 6.5240                 6.4903
 IR Inten    --      5.0111                 1.0546                 2.9144

                     97                     98                     99
                      A                      A                      A
 Frequencies --   3193.1850              3201.8025              3209.4077
 Red. masses --      1.0910                 1.0964                 1.0961
 Frc consts  --      6.5542                 6.6221                 6.6522
 IR Inten    --      2.8632                 8.8903                 5.6327

                    100                    101                    102
                      A                      A                      A
 Frequencies --   3304.9123              3320.7666              3574.1180
 Red. masses --      1.0999                 1.0687                 1.0771
 Frc consts  --      7.0784                 6.9434                 8.1069
 IR Inten    --      8.9787               443.8843                78.9973

 - Thermochemistry -
 -------------------
 Temperature   298.150 Kelvin.  Pressure   1.00000 Atm.
 Atom     1 has atomic number  6 and mass  12.00000

 Molecular mass:   335.05759 amu.
 Principal axes and moments of inertia in atomic units:
                           1         2         3
     Eigenvalues --  2897.18334********************
           X            0.99999   0.00357  -0.00332
           Y           -0.00362   0.99988  -0.01534
           Z            0.00326   0.01535   0.99988
 This molecule is an asymmetric top.
 Rotational symmetry number  1.
 Warning -- assumption of classical behavior for rotation
           may cause significant error
 Rotational temperatures (Kelvin)      0.02990     0.00604     0.00531
 Rotational constants (GHZ):           0.62293     0.12581     0.11068
 Zero-point vibrational energy     701045.5 (Joules/Mol)
                                  167.55390 (Kcal/Mol)
 Warning -- explicit consideration of  31 degrees of freedom as
           vibrations may cause significant error
 Vibrational temperatures:     38.30    56.00    86.87   105.66   130.72
          (Kelvin)            134.83   170.72   177.51   212.21   230.30
                              262.28   276.76   310.69   313.36   375.29
                              405.68   421.78   467.18   514.63   533.03
                              549.85   558.27   577.52   598.53   624.85
                              663.62   738.66   748.78   811.45   822.42
                              851.62   898.60   915.09   947.35   959.01
                              965.03  1017.88  1052.47  1081.75  1108.44
                             1112.28  1138.27  1167.98  1174.29  1227.58
                             1250.75  1289.82  1360.18  1386.76  1402.39
                             1445.57  1455.56  1480.85  1503.17  1524.33
                             1532.88  1546.24  1569.51  1625.17  1635.49
                             1647.11  1674.43  1677.94  1708.64  1725.72
                             1787.69  1836.72  1871.73  1892.30  1966.59
                             1990.17  1996.71  2005.46  2047.66  2075.52
                             2082.64  2089.71  2097.97  2106.48  2113.87
                             2153.56  2180.98  2185.23  2297.38  2335.69
                             2387.59  2393.41  2416.32  2490.20  4332.48
                             4378.79  4478.45  4492.87  4538.23  4557.47
                             4581.20  4594.28  4606.68  4617.62  4755.03
                             4777.84  5142.36

 Zero-point correction=                           0.267014 (Hartree/Particle)
 Thermal correction to Energy=                    0.286960
 Thermal correction to Enthalpy=                  0.287904
 Thermal correction to Gibbs Free Energy=         0.217860
 Sum of electronic and zero-point Energies=          -1478.901481
 Sum of electronic and thermal Energies=             -1478.881536
 Sum of electronic and thermal Enthalpies=           -1478.880592
 Sum of electronic and thermal Free Energies=        -1478.950636

                     E (Thermal)             CV                S
                      KCal/Mol        Cal/Mol-Kelvin    Cal/Mol-Kelvin
 Total                  180.070             76.529            147.420
 Electronic               0.000              0.000              0.000
 Translational            0.889              2.981             43.322
 Rotational               0.889              2.981             34.871
 Vibrational            178.293             70.567             69.227
 Vibration     1          0.593              1.984              6.066
 Vibration     2          0.594              1.981              5.313
 Vibration     3          0.597              1.973              4.445
 Vibration     4          0.599              1.967              4.059
 Vibration     5          0.602              1.956              3.642
 Vibration     6          0.603              1.954              3.581
 Vibration     7          0.609              1.934              3.122
 Vibration     8          0.610              1.930              3.047
 Vibration     9          0.617              1.905              2.704
 Vibration    10          0.622              1.891              2.549
 Vibration    11          0.630              1.864              2.305
 Vibration    12          0.634              1.850              2.205
 Vibration    13          0.645              1.817              1.993
 Vibration    14          0.646              1.814              1.977
 Vibration    15          0.669              1.744              1.656
 Vibration    16          0.681              1.707              1.522
 Vibration    17          0.688              1.687              1.456
 Vibration    18          0.709              1.626              1.286
 Vibration    19          0.733              1.559              1.132
 Vibration    20          0.742              1.533              1.078
 Vibration    21          0.752              1.508              1.031
 Vibration    22          0.756              1.496              1.008
 Vibration    23          0.767              1.467              0.958
 Vibration    24          0.779              1.435              0.906
 Vibration    25          0.795              1.395              0.845
 Vibration    26          0.819              1.336              0.763
 Vibration    27          0.868              1.220              0.625
 Vibration    28          0.875              1.205              0.609
 Vibration    29          0.920              1.109              0.516
 Vibration    30          0.928              1.093              0.501
 Vibration    31          0.949              1.049              0.464

                           ! Non-Optimized Parameters !
 Normal termination of Gaussian 16 at Mon May 23 22:52:24 2022.
