 Gaussian 16, Revision C.01,
 Gaussian 16:  ES64L-G16RevC.01  3-Jul-2019

 -------------------------
 # pop=nbo m06/6-31+g(d,p)
 -------------------------

 --------
 Isoxicam
 --------
 Symbolic Z-matrix:
 Charge =  1 Multiplicity = 2

                         Standard orientation:
 ---------------------------------------------------------------------
 Center     Atomic      Atomic             Coordinates (Angstroms)
 Number     Number       Type             X           Y           Z
 ---------------------------------------------------------------------
      1          6           0       -3.098007   -0.275499   -0.146862
      2          6           0       -4.445792   -0.596026   -0.097961
      3          6           0       -5.374198    0.427261    0.074677
      4          6           0       -4.944761    1.747869    0.190277
      5          6           0       -3.590250    2.058590    0.151763
      6          6           0       -2.642744    1.044344   -0.006799
      7          1           0       -4.754851   -1.634040   -0.193689
      8          1           0       -6.434546    0.192607    0.115283
      9          1           0       -5.673486    2.544159    0.317463
     10          1           0       -3.249437    3.085383    0.248983
     11          6           0       -1.208229    1.349557   -0.016675
     12          6           0       -0.257033    0.383070    0.184438
     13         16           0       -1.886158   -1.539543   -0.464455
     14          8           0       -1.462781   -1.448168   -1.848846
     15          8           0       -2.350088   -2.792883    0.106895
     16          7           0       -0.616100   -0.969118    0.489651
     17          6           0       -0.725886   -1.270929    1.927933
     18          1           0        0.227601   -1.008014    2.396092
     19          1           0       -1.528297   -0.690869    2.407316
     20          1           0       -0.909014   -2.338376    2.062800
     21          8           0       -0.910954    2.619516   -0.254694
     22          1           0        0.079459    2.699140   -0.213890
     23          6           0        1.162088    0.713207    0.075600
     24          8           0        1.553129    1.884878   -0.047724
     25          7           0        2.015069   -0.349066    0.122458
     26          1           0        1.600571   -1.277117    0.126214
     27          6           0        3.397820   -0.283988    0.049877
     28          7           0        4.062891   -1.418077    0.103036
     29          6           0        5.490051    0.286626   -0.087228
     30          6           0        4.249606    0.845270   -0.069912
     31          6           0        6.854195    0.846400   -0.194389
     32          1           0        7.456061    0.576813    0.680255
     33          1           0        7.365954    0.457797   -1.081518
     34          1           0        6.809122    1.935664   -0.266041
     35          8           0        5.394054   -1.050293    0.013703
     36          1           0        3.968335    1.884452   -0.137094
 ---------------------------------------------------------------------

 SCF Done:  E(UM06) =  -1478.86045766     A.U. after   27 cycles

 The electronic state is 2-A.
 Alpha  occ. eigenvalues --  -89.44083 -19.47859 -19.46136 -19.39154 -19.38384
 Alpha  occ. eigenvalues --  -19.38227 -14.64889 -14.62972 -14.62595 -10.55524
 Alpha  occ. eigenvalues --  -10.54957 -10.51097 -10.49895 -10.48048 -10.45990
 Alpha  occ. eigenvalues --  -10.45862 -10.44367 -10.43803 -10.43653 -10.43441
 Alpha  occ. eigenvalues --  -10.42627 -10.40201 -10.38626  -8.40729  -6.32583
 Alpha  occ. eigenvalues --   -6.32413  -6.32337  -1.32913  -1.29643  -1.29180
 Alpha  occ. eigenvalues --   -1.24387  -1.18382  -1.15806  -1.14025  -1.05451
 Alpha  occ. eigenvalues --   -1.03919  -0.98837  -0.96781  -0.95166  -0.94102
 Alpha  occ. eigenvalues --   -0.88110  -0.87107  -0.86615  -0.82751  -0.82075
 Alpha  occ. eigenvalues --   -0.78652  -0.77753  -0.75907  -0.75560  -0.72820
 Alpha  occ. eigenvalues --   -0.72037  -0.67595  -0.67189  -0.66928  -0.65837
 Alpha  occ. eigenvalues --   -0.65537  -0.63931  -0.63838  -0.63621  -0.62792
 Alpha  occ. eigenvalues --   -0.61588  -0.61287  -0.60928  -0.60422  -0.59225
 Alpha  occ. eigenvalues --   -0.58233  -0.56644  -0.56210  -0.55367  -0.54995
 Alpha  occ. eigenvalues --   -0.54709  -0.54098  -0.53059  -0.52769  -0.52271
 Alpha  occ. eigenvalues --   -0.50718  -0.49511  -0.48680  -0.47961  -0.47465
 Alpha  occ. eigenvalues --   -0.46747  -0.45802  -0.44380  -0.43694  -0.42928
 Alpha  occ. eigenvalues --   -0.42417  -0.41628
 Alpha virt. eigenvalues --   -0.23815  -0.17752  -0.16495  -0.13911  -0.13882
 Alpha virt. eigenvalues --   -0.12322  -0.11875  -0.11686  -0.10875  -0.10500
 Alpha virt. eigenvalues --   -0.10143  -0.09487  -0.09276  -0.09191  -0.08970

  Beta  occ. eigenvalues --  -89.44083 -19.47779 -19.45993 -19.39206 -19.38373
  Beta  occ. eigenvalues --  -19.38217 -14.64623 -14.62574 -14.62545 -10.55587
  Beta  occ. eigenvalues --  -10.54925 -10.50684 -10.49926 -10.48039 -10.45964
  Beta  occ. eigenvalues --  -10.45839 -10.44337 -10.43754 -10.43570 -10.43439
  Beta  occ. eigenvalues --  -10.42654 -10.40209 -10.38623  -8.40729  -6.32582
  Beta  occ. eigenvalues --   -6.32414  -6.32338  -1.32430  -1.29503  -1.28886
  Beta  occ. eigenvalues --   -1.24376  -1.18348  -1.15362  -1.13543  -1.05303
  Beta  occ. eigenvalues --   -1.03180  -0.98243  -0.96635  -0.94879  -0.93820
  Beta  occ. eigenvalues --   -0.87969  -0.86957  -0.86375  -0.82502  -0.81899
  Beta  occ. eigenvalues --   -0.78480  -0.77516  -0.75698  -0.75367  -0.72612
  Beta  occ. eigenvalues --   -0.71797  -0.67355  -0.66941  -0.66448  -0.65590
  Beta  occ. eigenvalues --   -0.64719  -0.63734  -0.63659  -0.63111  -0.62452
  Beta  occ. eigenvalues --   -0.61449  -0.61131  -0.60721  -0.59942  -0.59025
  Beta  occ. eigenvalues --   -0.58023  -0.56583  -0.56046  -0.54882  -0.54591
  Beta  occ. eigenvalues --   -0.54554  -0.54010  -0.52958  -0.52715  -0.51498
  Beta  occ. eigenvalues --   -0.50556  -0.49100  -0.48404  -0.47500  -0.47104
  Beta  occ. eigenvalues --   -0.46683  -0.44702  -0.43924  -0.42758  -0.42345
  Beta  occ. eigenvalues --   -0.39708
  Beta virt. eigenvalues --   -0.35358  -0.22688  -0.17462  -0.15550  -0.13853
  Beta virt. eigenvalues --   -0.13191  -0.12290  -0.11839  -0.11637  -0.10850
  Beta virt. eigenvalues --   -0.10443  -0.09828  -0.09455  -0.09202  -0.08933

 Mulliken charges and spin densities:
               1          2
     1  C   -1.237250   0.025220
     2  C    0.331669  -0.007702
     3  C    0.055239   0.092508
     4  C   -0.036453  -0.031961
     5  C   -0.066676   0.050808
     6  C    0.833735   0.014834
     7  H    0.220181  -0.000079
     8  H    0.209903  -0.004077
     9  H    0.204305   0.000851
    10  H    0.207107  -0.002346
    11  C   -0.185956   0.036534
    12  C   -0.205282   0.408758
    13  S    1.174716   0.007263
    14  O   -0.374147   0.003952
    15  O   -0.444712   0.004284
    16  N   -0.666084  -0.032394
    17  C   -0.154828   0.026677
    18  H    0.188173   0.000370
    19  H    0.199151   0.001318
    20  H    0.238513   0.000814
    21  O   -0.433247   0.066133
    22  H    0.458251  -0.001650
    23  C    0.586147  -0.054590
    24  O   -0.595861  -0.023818
    25  N   -0.234414   0.162166
    26  H    0.369790  -0.006122
    27  C    0.166829  -0.029672
    28  N   -0.427341   0.254480
    29  C   -0.408779   0.015634
    30  C    0.563034  -0.009687
    31  C   -0.558199   0.003766
    32  H    0.219739   0.002181
    33  H    0.221113   0.001952
    34  H    0.198938  -0.000341
    35  O    0.166570   0.023883
    36  H    0.216126   0.000053
 Sum of Mulliken charges =   1.00000   1.00000

 Dipole moment (field-independent basis, Debye):
    X=             -0.7858    Y=              5.2192    Z=              3.5430  Tot=              6.3569
 Quadrupole moment (field-independent basis, Debye-Ang):
   XX=            -25.5619   YY=           -133.2951   ZZ=           -136.4930
   XY=             -1.1701   XZ=             -5.9019   YZ=             -3.8684

 Summary of Natural Population Analysis:

                                       Natural Population
                Natural  -----------------------------------------------
    Atom  No    Charge         Core      Valence    Rydberg      Total
 -----------------------------------------------------------------------
      C    1   -0.13467      0.99937     2.12050    0.01480     3.13467
      C    2   -0.10312      0.99952     2.09534    0.00826     3.10312
      C    3   -0.03314      0.99957     2.02646    0.00711     3.03314
      C    4   -0.12089      0.99958     2.11399    0.00731     3.12089
      C    5   -0.05125      0.99955     2.04450    0.00721     3.05125
      C    6   -0.04664      0.99947     2.03707    0.01010     3.04664
      H    7    0.14940      0.00000     0.34989    0.00071     0.35060
      H    8    0.14042      0.00000     0.35908    0.00050     0.35958
      H    9    0.14206      0.00000     0.35738    0.00056     0.35794
      H   10    0.14356      0.00000     0.35574    0.00069     0.35644
      C   11    0.25637      0.99937     1.73287    0.01139     2.74363
      C   12    0.22479      0.99941     1.76359    0.01221     2.77521
      S   13    1.19165      4.99924     1.71226    0.09685     6.80835
      O   14   -0.44593      0.99993     3.43188    0.01413     4.44593
      O   15   -0.44966      0.99993     3.43520    0.01453     4.44966
      N   16   -0.37230      0.99972     2.85915    0.01343     3.87230
      C   17   -0.25194      0.99975     2.24544    0.00675     3.25194
      H   18    0.13207      0.00000     0.36734    0.00059     0.36793
      H   19    0.12509      0.00000     0.37421    0.00071     0.37491
      H   20    0.15052      0.00000     0.34898    0.00050     0.34948
      O   21   -0.28532      0.99988     3.27365    0.01178     4.28532
      H   22    0.28547      0.00000     0.21238    0.00215     0.21453
      C   23    0.31370      0.99953     1.66831    0.01846     2.68630
      O   24   -0.34037      0.99989     3.32866    0.01181     4.34037
      N   25   -0.20806      0.99966     2.70189    0.00651     3.70806
      H   26    0.24254      0.00000     0.25579    0.00168     0.25746
      C   27    0.16828      0.99960     1.81782    0.01430     2.83172
      N   28    0.08545      0.99967     2.40095    0.01393     3.41455
      C   29    0.21781      0.99954     1.77097    0.01169     2.78219
      C   30   -0.19770      0.99942     2.19204    0.00624     3.19770
      C   31   -0.38850      0.99970     2.38486    0.00394     3.38850
      H   32    0.14967      0.00000     0.34974    0.00059     0.35033
      H   33    0.14997      0.00000     0.34945    0.00059     0.35003
      H   34    0.14310      0.00000     0.35653    0.00037     0.35690
      O   35   -0.13488      0.99986     3.12183    0.01319     4.13488
      H   36    0.15250      0.00000     0.34688    0.00062     0.34750
 =======================================================================
   * Total *    1.00003     26.99116    58.66261    0.34620    85.99997

 Normal termination of Gaussian 16 at Wed May 25 14:43:09 2022.
