 Gaussian 16, Revision C.01,
 Gaussian 16:  ES64L-G16RevC.01  3-Jul-2019

 -------------------------
 # pop=nbo m06/6-31+g(d,p)
 -------------------------

 --------
 Isoxicam
 --------
 Symbolic Z-matrix:
 Charge =  0 Multiplicity = 1

                         Standard orientation:
 ---------------------------------------------------------------------
 Center     Atomic      Atomic             Coordinates (Angstroms)
 Number     Number       Type             X           Y           Z
 ---------------------------------------------------------------------
      1          6           0       -3.098007   -0.275499   -0.146862
      2          6           0       -4.445792   -0.596026   -0.097961
      3          6           0       -5.374198    0.427261    0.074677
      4          6           0       -4.944761    1.747869    0.190277
      5          6           0       -3.590250    2.058590    0.151763
      6          6           0       -2.642744    1.044344   -0.006799
      7          1           0       -4.754851   -1.634040   -0.193689
      8          1           0       -6.434546    0.192607    0.115283
      9          1           0       -5.673486    2.544159    0.317463
     10          1           0       -3.249437    3.085383    0.248983
     11          6           0       -1.208229    1.349557   -0.016675
     12          6           0       -0.257033    0.383070    0.184438
     13         16           0       -1.886158   -1.539543   -0.464455
     14          8           0       -1.462781   -1.448168   -1.848846
     15          8           0       -2.350088   -2.792883    0.106895
     16          7           0       -0.616100   -0.969118    0.489651
     17          6           0       -0.725886   -1.270929    1.927933
     18          1           0        0.227601   -1.008014    2.396092
     19          1           0       -1.528297   -0.690869    2.407316
     20          1           0       -0.909014   -2.338376    2.062800
     21          8           0       -0.910954    2.619516   -0.254694
     22          1           0        0.079459    2.699140   -0.213890
     23          6           0        1.162088    0.713207    0.075600
     24          8           0        1.553129    1.884878   -0.047724
     25          7           0        2.015069   -0.349066    0.122458
     26          1           0        1.600571   -1.277117    0.126214
     27          6           0        3.397820   -0.283988    0.049877
     28          7           0        4.062891   -1.418077    0.103036
     29          6           0        5.490051    0.286626   -0.087228
     30          6           0        4.249606    0.845270   -0.069912
     31          6           0        6.854195    0.846400   -0.194389
     32          1           0        7.456061    0.576813    0.680255
     33          1           0        7.365954    0.457797   -1.081518
     34          1           0        6.809122    1.935664   -0.266041
     35          8           0        5.394054   -1.050293    0.013703
     36          1           0        3.968335    1.884452   -0.137094
 ---------------------------------------------------------------------

 SCF Done:  E(RM06) =  -1479.16849552     A.U. after   16 cycles

 The electronic state is 1-A.
 Alpha  occ. eigenvalues --  -89.31142 -19.33457 -19.29587 -19.25797 -19.25409
 Alpha  occ. eigenvalues --  -19.24504 -14.47815 -14.47774 -14.46450 -10.40205
 Alpha  occ. eigenvalues --  -10.37849 -10.34773 -10.34494 -10.32477 -10.32115
 Alpha  occ. eigenvalues --  -10.32033 -10.31287 -10.30773 -10.30503 -10.30407
 Alpha  occ. eigenvalues --  -10.30335 -10.28122 -10.27107  -8.27757  -6.19575
 Alpha  occ. eigenvalues --   -6.19480  -6.19374  -1.18239  -1.16613  -1.13238
 Alpha  occ. eigenvalues --   -1.09343  -1.05781  -1.00205  -0.98580  -0.91976
 Alpha  occ. eigenvalues --   -0.88448  -0.83635  -0.83355  -0.81612  -0.79621
 Alpha  occ. eigenvalues --   -0.74744  -0.74718  -0.71803  -0.68678  -0.67530
 Alpha  occ. eigenvalues --   -0.64906  -0.63151  -0.61297  -0.60874  -0.59038
 Alpha  occ. eigenvalues --   -0.57063  -0.54100  -0.53787  -0.52815  -0.52495
 Alpha  occ. eigenvalues --   -0.51177  -0.50452  -0.50061  -0.49233  -0.48702
 Alpha  occ. eigenvalues --   -0.48097  -0.47872  -0.47208  -0.46211  -0.45246
 Alpha  occ. eigenvalues --   -0.44212  -0.43917  -0.43531  -0.42851  -0.42529
 Alpha  occ. eigenvalues --   -0.41830  -0.41355  -0.40597  -0.40097  -0.37913
 Alpha  occ. eigenvalues --   -0.37370  -0.36507  -0.35635  -0.34116  -0.33423
 Alpha  occ. eigenvalues --   -0.32919  -0.31530  -0.30490  -0.29687  -0.28959
 Alpha  occ. eigenvalues --   -0.27585  -0.26208
 Alpha virt. eigenvalues --   -0.08972  -0.05148  -0.03299  -0.02643  -0.02328
 Alpha virt. eigenvalues --   -0.02065  -0.01930  -0.00985  -0.00676  -0.00326
 Alpha virt. eigenvalues --   -0.00163   0.00516   0.00880   0.01196   0.01322

 Mulliken charges:
               1
     1  C   -1.292716
     2  C    0.339047
     3  C    0.034079
     4  C   -0.002684
     5  C   -0.101724
     6  C    0.787804
     7  H    0.188788
     8  H    0.165867
     9  H    0.164603
    10  H    0.179945
    11  C   -0.157631
    12  C   -0.394805
    13  S    1.251778
    14  O   -0.414734
    15  O   -0.498206
    16  N   -0.642475
    17  C   -0.130981
    18  H    0.172820
    19  H    0.172973
    20  H    0.204459
    21  O   -0.523570
    22  H    0.448013
    23  C    0.586277
    24  O   -0.646869
    25  N   -0.292361
    26  H    0.345245
    27  C    0.204716
    28  N   -0.531492
    29  C   -0.340134
    30  C    0.460089
    31  C   -0.596478
    32  H    0.191420
    33  H    0.192949
    34  H    0.177817
    35  O    0.107878
    36  H    0.190292
 Sum of Mulliken charges =  -0.00000

 Dipole moment (field-independent basis, Debye):
    X=             -1.7972    Y=              4.2651    Z=              3.1248  Tot=              5.5844
 Quadrupole moment (field-independent basis, Debye-Ang):
   XX=           -101.7546   YY=           -149.8774   ZZ=           -143.3943
   XY=              3.2570   XZ=             -5.1750   YZ=             -3.2014

 Summary of Natural Population Analysis:

                                       Natural Population
                Natural  -----------------------------------------------
    Atom  No    Charge         Core      Valence    Rydberg      Total
 -----------------------------------------------------------------------
      C    1   -0.30946      1.99873     4.28000    0.03073     6.30946
      C    2   -0.21929      1.99903     4.20397    0.01629     6.21929
      C    3   -0.21938      1.99914     4.20551    0.01473     6.21938
      C    4   -0.22452      1.99915     4.21075    0.01462     6.22452
      C    5   -0.19550      1.99909     4.18187    0.01454     6.19550
      C    6   -0.10232      1.99894     4.08249    0.02089     6.10232
      H    7    0.28042      0.00000     0.71800    0.00157     0.71958
      H    8    0.26092      0.00000     0.73791    0.00117     0.73908
      H    9    0.25977      0.00000     0.73900    0.00123     0.74023
      H   10    0.27608      0.00000     0.72232    0.00160     0.72392
      C   11    0.43169      1.99874     3.54487    0.02470     5.56831
      C   12   -0.08025      1.99882     4.05640    0.02504     6.08025
      S   13    2.39451      9.99849     3.41381    0.19319    13.60549
      O   14   -0.92075      1.99986     6.89332    0.02757     8.92075
      O   15   -0.94319      1.99986     6.91433    0.02900     8.94319
      N   16   -0.77875      1.99944     5.75080    0.02852     7.77875
      C   17   -0.50754      1.99952     4.49524    0.01279     6.50754
      H   18    0.25616      0.00000     0.74250    0.00134     0.74384
      H   19    0.23419      0.00000     0.76410    0.00171     0.76581
      H   20    0.27688      0.00000     0.72204    0.00108     0.72312
      O   21   -0.71215      1.99976     6.69467    0.01772     8.71215
      H   22    0.56376      0.00000     0.43086    0.00538     0.43624
      C   23    0.70727      1.99905     3.25632    0.03736     5.29273
      O   24   -0.69407      1.99978     6.67127    0.02302     8.69407
      N   25   -0.65869      1.99932     5.64617    0.01320     7.65869
      H   26    0.47511      0.00000     0.52150    0.00339     0.52489
      C   27    0.35204      1.99922     3.62038    0.02837     5.64796
      N   28   -0.19464      1.99934     5.16490    0.03040     7.19464
      C   29    0.37543      1.99907     3.60016    0.02534     5.62457
      C   30   -0.39482      1.99884     4.38300    0.01298     6.39482
      C   31   -0.76482      1.99941     4.75797    0.00744     6.76482
      H   32    0.27513      0.00000     0.72352    0.00135     0.72487
      H   33    0.27611      0.00000     0.72255    0.00134     0.72389
      H   34    0.26982      0.00000     0.72939    0.00080     0.73018
      O   35   -0.33476      1.99972     6.31305    0.02199     8.33476
      H   36    0.28968      0.00000     0.70892    0.00139     0.71032
 =======================================================================
   * Total *    0.00006     53.98232   119.32386    0.69376   173.99994

 Normal termination of Gaussian 16 at Wed May 25 14:23:16 2022.
