 Gaussian 16, Revision C.01,
 Gaussian 16:  ES64L-G16RevC.01  3-Jul-2019

 --------------------------
 # opt freq 6-31+g(d,p) m06
 --------------------------

 ----
 I-M2
 ----
 Symbolic Z-matrix:
 Charge =  0 Multiplicity = 1

 SCF Done:  E(RM06) =  -642.301971787     A.U. after   15 cycles
 SCF Done:  E(RM06) =  -642.305951921     A.U. after   14 cycles
 SCF Done:  E(RM06) =  -642.306229436     A.U. after   14 cycles
 SCF Done:  E(RM06) =  -642.307017844     A.U. after   13 cycles
 SCF Done:  E(RM06) =  -642.306739002     A.U. after   13 cycles
 SCF Done:  E(RM06) =  -642.307618126     A.U. after   12 cycles
 SCF Done:  E(RM06) =  -642.307634308     A.U. after   11 cycles
 SCF Done:  E(RM06) =  -642.307637564     A.U. after   10 cycles
 SCF Done:  E(RM06) =  -642.307638732     A.U. after    9 cycles
 SCF Done:  E(RM06) =  -642.307638991     A.U. after    9 cycles
 SCF Done:  E(RM06) =  -642.307639053     A.U. after    8 cycles
 SCF Done:  E(RM06) =  -642.307639080     A.U. after    9 cycles
 Optimization completed.
    -- Stationary point found.
 Normal termination of Gaussian 16 at Mon May 15 22:07:14 2023.

 ---------------------------------------------------------------------
 #N Geom=AllCheck Guess=TCheck SCRF=Check GenChk RM06/6-31+G(d,p) Freq
 ---------------------------------------------------------------------

 Structure from the checkpoint file:  "/home/user/SOFTWARE/gauss/scratch/Gau-31780.chk"
 ----
 I-M2
 ----
 Charge =  0 Multiplicity = 1

                         Standard orientation:
 ---------------------------------------------------------------------
 Center     Atomic      Atomic             Coordinates (Angstroms)
 Number     Number       Type             X           Y           Z
 ---------------------------------------------------------------------
      1          6           0        2.815018    0.267296    0.000256
      2          8           0        2.806257   -1.077298   -0.000325
      3          6           0        0.765383   -0.448753   -0.000152
      4          6           0        1.539024    0.740456    0.000351
      5          1           0        1.190082    1.761481    0.000606
      6          7           0        1.502682   -1.537905   -0.000570
      7          6           0        4.141179    0.920201    0.000470
      8          1           0        4.025646    2.006539    0.002023
      9          1           0        4.718979    0.627462    0.883806
     10          1           0        4.718042    0.629938   -0.884303
     11          7           0       -0.612923   -0.600792   -0.000082
     12          1           0       -0.977647   -1.549964    0.000298
     13          6           0       -1.512436    0.420509   -0.000286
     14          8           0       -1.258921    1.605534   -0.000756
     15          6           0       -2.946013   -0.129795    0.000172
     16          8           0       -3.198349   -1.312485    0.000620
     17          8           0       -3.847943    0.840781    0.000075
     18          1           0       -4.724697    0.423680    0.000350
 ---------------------------------------------------------------------

 SCF Done:  E(RM06) =  -642.307639080     A.U. after    1 cycles

 The electronic state is 1-A.
 Alpha  occ. eigenvalues --  -19.34028 -19.32790 -19.27632 -19.25344 -14.48711
 Alpha  occ. eigenvalues --  -14.47099 -10.43796 -10.40915 -10.35351 -10.35001
 Alpha  occ. eigenvalues --  -10.28445 -10.27638  -1.18844  -1.18079  -1.10423
 Alpha  occ. eigenvalues --   -1.09152  -1.00196  -0.89068  -0.83910  -0.75341
 Alpha  occ. eigenvalues --   -0.75086  -0.68036  -0.63881  -0.61271  -0.56818
 Alpha  occ. eigenvalues --   -0.54123  -0.53918  -0.52496  -0.51226  -0.50448
 Alpha  occ. eigenvalues --   -0.48596  -0.46410  -0.45078  -0.44379  -0.43847
 Alpha  occ. eigenvalues --   -0.43167  -0.41139  -0.38330  -0.37870  -0.37102
 Alpha  occ. eigenvalues --   -0.33551  -0.30358  -0.29253  -0.27810
 Alpha virt. eigenvalues --   -0.07867  -0.03756  -0.02440  -0.01585  -0.01276
 Alpha virt. eigenvalues --   -0.00156   0.00064   0.00919   0.01407   0.01617
 Alpha virt. eigenvalues --    0.03251   0.03619   0.03825   0.04466   0.04883

 Mulliken charges:
               1
     1  C   -0.197761
     2  O    0.041765
     3  C   -0.063636
     4  C    0.441817
     5  H    0.196302
     6  N   -0.429014
     7  C   -0.539042
     8  H    0.179704
     9  H    0.193265
    10  H    0.193290
    11  N   -0.330949
    12  H    0.345214
    13  C    0.308411
    14  O   -0.525869
    15  C    0.690694
    16  O   -0.479617
    17  O   -0.424715
    18  H    0.400140
 Sum of Mulliken charges =   0.00000

 Dipole moment (field-independent basis, Debye):
    X=              0.0375    Y=              1.4766    Z=              0.0023  Tot=              1.4771
 Quadrupole moment (field-independent basis, Debye-Ang):
   XX=            -47.2555   YY=            -78.6345   ZZ=            -67.5947
   XY=              7.8691   XZ=              0.0017   YZ=              0.0025

  Exact polarizability:     137.356      -1.978      97.278      -0.001      -0.001      55.712
 Approx polarizability:     163.010     -11.824     167.496      -0.003      -0.002      79.923

                      1                      2                      3
                      A                      A                      A
 Frequencies --     49.7612                56.7998                82.9225
 Red. masses --      7.2421                 6.1555                 1.9554
 Frc consts  --      0.0106                 0.0117                 0.0079
 IR Inten    --      1.8276                 3.7259                 3.3228

                      4                      5                      6
                      A                      A                      A
 Frequencies --     99.3934               106.2575               208.7680
 Red. masses --      1.8399                 5.8978                 3.5706
 Frc consts  --      0.0107                 0.0392                 0.0917
 IR Inten    --      5.5555                 3.2857                 1.2847

                      7                      8                      9
                      A                      A                      A
 Frequencies --    219.8481               299.3466               357.0050
 Red. masses --      6.4251                 4.7879                 9.1744
 Frc consts  --      0.1830                 0.2528                 0.6889
 IR Inten    --     10.9257                 3.0298                 3.8472

                     10                     11                     12
                      A                      A                      A
 Frequencies --    376.1958               403.0054               478.4832
 Red. masses --      5.9788                 4.6380                 3.8277
 Frc consts  --      0.4985                 0.4438                 0.5163
 IR Inten    --      0.2411                 3.8152                 0.0203

                     13                     14                     15
                      A                      A                      A
 Frequencies --    528.0529               627.4728               630.4592
 Red. masses --     10.6618                 5.1184                 4.5642
 Frc consts  --      1.7516                 1.1873                 1.0689
 IR Inten    --      4.2494                 0.0565                45.3574

                     16                     17                     18
                      A                      A                      A
 Frequencies --    666.4176               673.7380               692.0576
 Red. masses --      1.3249                 1.1860                 4.0068
 Frc consts  --      0.3467                 0.3172                 1.1307
 IR Inten    --    223.4440                 1.2261               110.3714

                     19                     20                     21
                      A                      A                      A
 Frequencies --    709.5567               802.9955               815.4683
 Red. masses --      4.4377                 4.8510                 1.3420
 Frc consts  --      1.3164                 1.8429                 0.5258
 IR Inten    --      9.8980                 1.5610                41.2373

                     22                     23                     24
                      A                      A                      A
 Frequencies --    827.4706               928.1547               963.2383
 Red. masses --      8.7397                 5.7419                 2.0532
 Frc consts  --      3.5258                 2.9144                 1.1224
 IR Inten    --      2.9533                19.7314                 6.0248

                     25                     26                     27
                      A                      A                      A
 Frequencies --   1014.3831              1027.5712              1045.2021
 Red. masses --      3.4397                 3.4760                 1.5608
 Frc consts  --      2.0853                 2.1625                 1.0046
 IR Inten    --      0.7224                26.6216                 3.7867

                     28                     29                     30
                      A                      A                      A
 Frequencies --   1082.6754              1144.4698              1184.4132
 Red. masses --      7.1743                 1.9305                 2.1351
 Frc consts  --      4.9548                 1.4898                 1.7647
 IR Inten    --      2.5553                 8.5335               153.1425

                     31                     32                     33
                      A                      A                      A
 Frequencies --   1212.1850              1312.2847              1392.9680
 Red. masses --      1.6499                 3.7213                 1.4374
 Frc consts  --      1.4284                 3.7757                 1.6432
 IR Inten    --     97.2830                24.6879                31.6441

                     34                     35                     36
                      A                      A                      A
 Frequencies --   1403.4166              1441.6841              1452.1306
 Red. masses --      2.7933                 1.0400                 1.1140
 Frc consts  --      3.2415                 1.2736                 1.3840
 IR Inten    --    202.6630                11.7703                 6.1961

                     37                     38                     39
                      A                      A                      A
 Frequencies --   1491.9733              1520.5355              1595.5048
 Red. masses --      4.5514                 6.6347                 5.0265
 Frc consts  --      5.9692                 9.0378                 7.5390
 IR Inten    --      8.9641               203.1007               148.0283

                     40                     41                     42
                      A                      A                      A
 Frequencies --   1673.9252              1842.5925              1857.4271
 Red. masses --      6.8575                12.3703                11.3726
 Frc consts  --     11.3210                24.7451                23.1171
 IR Inten    --    220.5431               471.8660               130.1307

                     43                     44                     45
                      A                      A                      A
 Frequencies --   3044.2456              3123.7737              3155.5552
 Red. masses --      1.0379                 1.1017                 1.1027
 Frc consts  --      5.6669                 6.3341                 6.4692
 IR Inten    --     13.5610                 3.5401                 4.6084

                     46                     47                     48
                      A                      A                      A
 Frequencies --   3294.3986              3573.9308              3805.0361
 Red. masses --      1.1013                 1.0776                 1.0648
 Frc consts  --      7.0421                 8.1092                 9.0829
 IR Inten    --      8.0751               103.5221               151.4917

 - Thermochemistry -
 -------------------
 Temperature   298.150 Kelvin.  Pressure   1.00000 Atm.
 Atom     1 has atomic number  6 and mass  12.00000

 Molecular mass:   170.03276 amu.
 Principal axes and moments of inertia in atomic units:
                           1         2         3
     Eigenvalues --   610.595444085.447674684.79163
           X            0.99987   0.01612   0.00001
           Y           -0.01612   0.99987   0.00001
           Z           -0.00000  -0.00001   1.00000
 This molecule is an asymmetric top.
 Rotational symmetry number  1.
 Warning -- assumption of classical behavior for rotation
           may cause significant error
 Rotational temperatures (Kelvin)      0.14185     0.02120     0.01849
 Rotational constants (GHZ):           2.95571     0.44175     0.38523
 Zero-point vibrational energy     336719.8 (Joules/Mol)
                                   80.47796 (Kcal/Mol)
 Warning -- explicit consideration of  13 degrees of freedom as
           vibrations may cause significant error
 Vibrational temperatures:     71.60    81.72   119.31   143.00   152.88
          (Kelvin)            300.37   316.31   430.69   513.65   541.26
                              579.83   688.43   759.75   902.79   907.09
                              958.83   969.36   995.72  1020.89  1155.33
                             1173.28  1190.55  1335.41  1385.89  1459.47
                             1478.45  1503.81  1557.73  1646.64  1704.11
                             1744.06  1888.09  2004.17  2019.20  2074.26
                             2089.29  2146.62  2187.71  2295.58  2408.41
                             2651.08  2672.42  4379.99  4494.41  4540.14
                             4739.90  5142.09  5474.60

 Zero-point correction=                           0.128250 (Hartree/Particle)
 Thermal correction to Energy=                    0.139215
 Thermal correction to Enthalpy=                  0.140159
 Thermal correction to Gibbs Free Energy=         0.090013
 Sum of electronic and zero-point Energies=           -642.179389
 Sum of electronic and thermal Energies=              -642.168424
 Sum of electronic and thermal Enthalpies=            -642.167480
 Sum of electronic and thermal Free Energies=         -642.217626

                     E (Thermal)             CV                S
                      KCal/Mol        Cal/Mol-Kelvin    Cal/Mol-Kelvin
 Total                   87.359             39.055            105.541
 Electronic               0.000              0.000              0.000
 Translational            0.889              2.981             41.300
 Rotational               0.889              2.981             30.836
 Vibrational             85.581             33.094             33.405
 Vibration     1          0.595              1.978              4.827
 Vibration     2          0.596              1.975              4.565
 Vibration     3          0.600              1.961              3.820
 Vibration     4          0.604              1.950              3.466
 Vibration     5          0.605              1.944              3.336
 Vibration     6          0.642              1.827              2.054
 Vibration     7          0.647              1.811              1.960
 Vibration     8          0.692              1.675              1.421
 Vibration     9          0.732              1.561              1.135
 Vibration    10          0.747              1.521              1.054
 Vibration    11          0.768              1.464              0.952
 Vibration    12          0.835              1.298              0.714
 Vibration    13          0.883              1.188              0.592

                           ! Non-Optimized Parameters !
 Normal termination of Gaussian 16 at Mon May 15 22:11:17 2023.
