 Gaussian 16, Revision C.01,
 Gaussian 16:  ES64L-G16RevC.01  3-Jul-2019

 --------------------------------
 # 6-31+g(d,p) pop=(full,nbo) m06
 --------------------------------

 ----
 I-M2
 ----
 Symbolic Z-matrix:
 Charge =  1 Multiplicity = 2

                         Standard orientation:
 ---------------------------------------------------------------------
 Center     Atomic      Atomic             Coordinates (Angstroms)
 Number     Number       Type             X           Y           Z
 ---------------------------------------------------------------------
      1          6           0       -2.815018    0.267296   -0.000256
      2          8           0       -2.806257   -1.077298    0.000325
      3          6           0       -0.765383   -0.448753    0.000152
      4          6           0       -1.539024    0.740456   -0.000351
      5          1           0       -1.190082    1.761481   -0.000606
      6          7           0       -1.502682   -1.537905    0.000570
      7          6           0       -4.141179    0.920201   -0.000470
      8          1           0       -4.025646    2.006539   -0.002023
      9          1           0       -4.718979    0.627462   -0.883806
     10          1           0       -4.718042    0.629938    0.884303
     11          7           0        0.612923   -0.600792    0.000082
     12          1           0        0.977647   -1.549964   -0.000298
     13          6           0        1.512436    0.420509    0.000286
     14          8           0        1.258921    1.605534    0.000756
     15          6           0        2.946013   -0.129795   -0.000172
     16          8           0        3.198349   -1.312485   -0.000620
     17          8           0        3.847943    0.840781   -0.000075
     18          1           0        4.724697    0.423680   -0.000350
 ---------------------------------------------------------------------

 SCF Done:  E(UM06) =  -641.966094105     A.U. after   28 cycles

 The electronic state is 2-A.
 Alpha  occ. eigenvalues --  -19.56175 -19.45147 -19.44121 -19.41133 -14.74954
 Alpha  occ. eigenvalues --  -14.70084 -10.58621 -10.58411 -10.58305 -10.57593
 Alpha  occ. eigenvalues --  -10.48755 -10.45491  -1.42573  -1.31302  -1.28357
 Alpha  occ. eigenvalues --   -1.22694  -1.20903  -1.13028  -1.05577  -0.94693
 Alpha  occ. eigenvalues --   -0.92842  -0.86863  -0.83284  -0.81365  -0.74889
 Alpha  occ. eigenvalues --   -0.74860  -0.72934  -0.70349  -0.68175  -0.67040
 Alpha  occ. eigenvalues --   -0.65575  -0.64337  -0.63345  -0.62578  -0.61769
 Alpha  occ. eigenvalues --   -0.60660  -0.58466  -0.57857  -0.57489  -0.52292
 Alpha  occ. eigenvalues --   -0.52186  -0.50943  -0.49907  -0.46126
 Alpha virt. eigenvalues --   -0.25884  -0.21918  -0.16464  -0.15570  -0.15229
 Alpha virt. eigenvalues --   -0.13351  -0.12881  -0.12571  -0.11777  -0.11327
 Alpha virt. eigenvalues --   -0.10263  -0.10187  -0.09318  -0.08672  -0.07943

  Beta  occ. eigenvalues --  -19.56171 -19.45148 -19.43948 -19.41130 -14.73929
  Beta  occ. eigenvalues --  -14.69804 -10.58698 -10.58478 -10.58092 -10.57592
  Beta  occ. eigenvalues --  -10.48729 -10.45485  -1.41565  -1.31189  -1.27857
  Beta  occ. eigenvalues --   -1.22509  -1.20221  -1.11198  -1.05026  -0.94319
  Beta  occ. eigenvalues --   -0.92493  -0.86448  -0.83065  -0.81070  -0.74266
  Beta  occ. eigenvalues --   -0.72625  -0.72152  -0.70111  -0.67311  -0.66992
  Beta  occ. eigenvalues --   -0.65274  -0.64230  -0.62463  -0.62306  -0.60691
  Beta  occ. eigenvalues --   -0.60106  -0.58430  -0.56507  -0.55948  -0.52064
  Beta  occ. eigenvalues --   -0.50898  -0.48434  -0.45970
  Beta virt. eigenvalues --   -0.40485  -0.23677  -0.20269  -0.16396  -0.15243
  Beta virt. eigenvalues --   -0.14318  -0.13198  -0.12450  -0.12448  -0.11569
  Beta virt. eigenvalues --   -0.11169  -0.10139  -0.09953  -0.09266  -0.08554

 Mulliken charges and spin densities:
               1          2
     1  C   -0.255027   0.177434
     2  O    0.123489  -0.017410
     3  C   -0.193332  -0.057078
     4  C    0.676429   0.024786
     5  H    0.259201  -0.002015
     6  N   -0.152966   0.620129
     7  C   -0.485640   0.005288
     8  H    0.227620  -0.001248
     9  H    0.254430   0.016570
    10  H    0.254502   0.016625
    11  N   -0.259671   0.176066
    12  H    0.387337  -0.006395
    13  C    0.318041  -0.052085
    14  O   -0.421624   0.097322
    15  C    0.686610   0.001079
    16  O   -0.436332   0.001616
    17  O   -0.409330  -0.000739
    18  H    0.426263   0.000053
 Sum of Mulliken charges =   1.00000   1.00000

 Dipole moment (field-independent basis, Debye):
    X=             -5.2451    Y=              0.8065    Z=             -0.0018  Tot=              5.3068
 Quadrupole moment (field-independent basis, Debye-Ang):
   XX=            -11.4693   YY=            -67.4857   ZZ=            -63.2892
   XY=             -7.8075   XZ=              0.0016   YZ=             -0.0031

 Summary of Natural Population Analysis:

                                       Natural Population
                Natural  -----------------------------------------------
    Atom  No    Charge         Core      Valence    Rydberg      Total
 -----------------------------------------------------------------------
      C    1    0.34669      0.99954     1.64196    0.01181     2.65331
      O    2   -0.16080      0.99986     3.14792    0.01302     4.16080
      C    3    0.16505      0.99962     1.82093    0.01440     2.83495
      C    4   -0.15932      0.99942     2.15286    0.00704     3.15932
      H    5    0.16443      0.00000     0.33474    0.00082     0.33557
      N    6    0.36546      0.99967     2.12169    0.01318     3.13454
      C    7   -0.39509      0.99969     2.39124    0.00416     3.39509
      H    8    0.15299      0.00000     0.34668    0.00034     0.34701
      H    9    0.17083      0.00000     0.32865    0.00052     0.32917
      H   10    0.17088      0.00000     0.32860    0.00052     0.32912
      N   11   -0.20310      0.99966     2.69701    0.00643     3.70310
      H   12    0.25281      0.00000     0.24542    0.00177     0.24719
      C   13    0.28963      0.99967     1.69117    0.01953     2.71037
      O   14   -0.19038      0.99990     3.17813    0.01235     4.19038
      C   15    0.38087      0.99973     1.59679    0.02261     2.61913
      O   16   -0.28893      0.99990     3.27619    0.01284     4.28893
      O   17   -0.33963      0.99988     3.33189    0.00786     4.33963
      H   18    0.27763      0.00000     0.21990    0.00247     0.22237
 =======================================================================
   * Total *    1.00000     11.99654    30.85177    0.15169    43.00000

 Normal termination of Gaussian 16 at Mon May 15 22:21:57 2023.
