 Gaussian 16, Revision C.01,
 Gaussian 16:  ES64L-G16RevC.01  3-Jul-2019

 --------------------------
 # opt freq 6-31+g(d,p) m06
 --------------------------

 ----
 I-M1
 ----
 Symbolic Z-matrix:
 Charge =  0 Multiplicity = 1

 SCF Done:  E(RM06) =  -1554.34834571     A.U. after   17 cycles
 SCF Done:  E(RM06) =  -1554.34981104     A.U. after   13 cycles
 SCF Done:  E(RM06) =  -1554.34994876     A.U. after   12 cycles
 SCF Done:  E(RM06) =  -1554.35021380     A.U. after   13 cycles
 SCF Done:  E(RM06) =  -1554.35051380     A.U. after   14 cycles
 SCF Done:  E(RM06) =  -1554.35102269     A.U. after   12 cycles
 SCF Done:  E(RM06) =  -1554.35181472     A.U. after   13 cycles
 SCF Done:  E(RM06) =  -1554.35206524     A.U. after   14 cycles
 SCF Done:  E(RM06) =  -1554.35241522     A.U. after   13 cycles
 SCF Done:  E(RM06) =  -1554.35259861     A.U. after   13 cycles
 SCF Done:  E(RM06) =  -1554.35281042     A.U. after   13 cycles
 SCF Done:  E(RM06) =  -1554.35287299     A.U. after   13 cycles
 SCF Done:  E(RM06) =  -1554.35295087     A.U. after   12 cycles
 SCF Done:  E(RM06) =  -1554.35299329     A.U. after   12 cycles
 SCF Done:  E(RM06) =  -1554.35299738     A.U. after   11 cycles
 SCF Done:  E(RM06) =  -1554.35299835     A.U. after   10 cycles
 SCF Done:  E(RM06) =  -1554.35299855     A.U. after    9 cycles
 SCF Done:  E(RM06) =  -1554.35299859     A.U. after    9 cycles
 Optimization completed.
    -- Stationary point found.
 Normal termination of Gaussian 16 at Tue Feb 14 20:15:49 2023.

 ---------------------------------------------------------------------
 #N Geom=AllCheck Guess=TCheck SCRF=Check GenChk RM06/6-31+G(d,p) Freq
 ---------------------------------------------------------------------

 Structure from the checkpoint file:  "/home/user/SOFTWARE/gauss/scratch/Gau-301083.chk"
 ----
 I-M1
 ----
 Charge =  0 Multiplicity = 1

                         Standard orientation:
 ---------------------------------------------------------------------
 Center     Atomic      Atomic             Coordinates (Angstroms)
 Number     Number       Type             X           Y           Z
 ---------------------------------------------------------------------
      1          6           0       -3.440404   -0.259774   -0.108989
      2          6           0       -4.789515   -0.568330   -0.030058
      3          6           0       -5.705602    0.464484    0.151935
      4          6           0       -5.263021    1.782353    0.246781
      5          6           0       -3.906978    2.081246    0.177967
      6          6           0       -2.971516    1.057497    0.009578
      7          1           0       -5.109328   -1.604413   -0.109833
      8          1           0       -6.766811    0.239289    0.216207
      9          1           0       -5.982320    2.585902    0.381466
     10          1           0       -3.555821    3.105977    0.258843
     11          6           0       -1.535036    1.349929   -0.033399
     12          6           0       -0.588351    0.376370    0.157469
     13         16           0       -2.246339   -1.537760   -0.438369
     14          8           0       -1.848412   -1.463171   -1.831315
     15          8           0       -2.709414   -2.781333    0.154253
     16          7           0       -0.952526   -0.969093    0.485051
     17          6           0       -1.037433   -1.253400    1.928708
     18          1           0       -0.072163   -0.996081    2.375365
     19          1           0       -1.823711   -0.658977    2.417013
     20          1           0       -1.229834   -2.317120    2.079220
     21          8           0       -1.231770    2.614090   -0.291586
     22          1           0       -0.240706    2.686975   -0.274067
     23          6           0        0.829602    0.690688    0.010086
     24          8           0        1.231990    1.855307   -0.135871
     25          7           0        1.672967   -0.382098    0.046636
     26          1           0        1.247677   -1.305145    0.068019
     27          6           0        3.052098   -0.330701   -0.063860
     28          7           0        3.709229   -1.470816   -0.034333
     29          6           0        5.142597    0.223539   -0.247263
     30          6           0        3.911725    0.794015   -0.194407
     31          6           0        6.527565    0.751413   -0.380767
     32          1           0        6.960151    0.398851   -1.331102
     33          8           0        5.039761   -1.114653   -0.159589
     34          1           0        3.637839    1.836572   -0.235812
     35          8           0        7.346432    0.407323    0.712968
     36          1           0        7.398233   -0.553901    0.774382
     37          1           0        6.487449    1.843832   -0.420838
 ---------------------------------------------------------------------

 SCF Done:  E(RM06) =  -1554.35299859     A.U. after    2 cycles

 The electronic state is 1-A.
 Alpha  occ. eigenvalues --  -89.31391 -19.34488 -19.29941 -19.26268 -19.26048
 Alpha  occ. eigenvalues --  -19.25663 -19.24930 -14.48264 -14.48083 -14.47412
 Alpha  occ. eigenvalues --  -10.40628 -10.38194 -10.35593 -10.34735 -10.33757
 Alpha  occ. eigenvalues --  -10.32723 -10.32415 -10.32278 -10.31528 -10.30994
 Alpha  occ. eigenvalues --  -10.30724 -10.30640 -10.30552 -10.28142  -8.28007
 Alpha  occ. eigenvalues --   -6.19825  -6.19730  -6.19624  -1.19257  -1.16867
 Alpha  occ. eigenvalues --   -1.13596  -1.09787  -1.07444  -1.06036  -1.00624
 Alpha  occ. eigenvalues --   -0.98990  -0.92213  -0.89069  -0.83922  -0.83677
 Alpha  occ. eigenvalues --   -0.81866  -0.79944  -0.74965  -0.73785  -0.72219
 Alpha  occ. eigenvalues --   -0.68935  -0.68086  -0.65175  -0.64008  -0.61752
 Alpha  occ. eigenvalues --   -0.61334  -0.59307  -0.57606  -0.56904  -0.54302
 Alpha  occ. eigenvalues --   -0.53685  -0.53047  -0.52843  -0.51266  -0.50714
 Alpha  occ. eigenvalues --   -0.50408  -0.49611  -0.48969  -0.48359  -0.48181
 Alpha  occ. eigenvalues --   -0.47611  -0.46914  -0.46437  -0.45694  -0.45075
 Alpha  occ. eigenvalues --   -0.44310  -0.42840  -0.42486  -0.42047  -0.41555
 Alpha  occ. eigenvalues --   -0.40330  -0.38755  -0.38123  -0.37632  -0.36758
 Alpha  occ. eigenvalues --   -0.35890  -0.34370  -0.33893  -0.33556  -0.31804
 Alpha  occ. eigenvalues --   -0.31789  -0.30752  -0.30028  -0.29719  -0.28501
 Alpha  occ. eigenvalues --   -0.26633
 Alpha virt. eigenvalues --   -0.09289  -0.05377  -0.03514  -0.03442  -0.02756
 Alpha virt. eigenvalues --   -0.02231  -0.01981  -0.01447  -0.01057  -0.00825
 Alpha virt. eigenvalues --   -0.00203  -0.00121   0.00455   0.00875   0.01016

 Mulliken charges:
               1
     1  C   -1.283060
     2  C    0.337988
     3  C    0.032957
     4  C    0.000595
     5  C   -0.104515
     6  C    0.780416
     7  H    0.189262
     8  H    0.166687
     9  H    0.165450
    10  H    0.180530
    11  C   -0.152783
    12  C   -0.390186
    13  S    1.251110
    14  O   -0.414210
    15  O   -0.497189
    16  N   -0.647903
    17  C   -0.128701
    18  H    0.172540
    19  H    0.173698
    20  H    0.204856
    21  O   -0.520112
    22  H    0.447882
    23  C    0.569330
    24  O   -0.644725
    25  N   -0.291287
    26  H    0.346358
    27  C    0.350237
    28  N   -0.559563
    29  C   -0.226119
    30  C    0.618307
    31  C   -0.613153
    32  H    0.162394
    33  O    0.090436
    34  H    0.196445
    35  O   -0.498708
    36  H    0.370896
    37  H    0.163840
 Sum of Mulliken charges =  -0.00000

 Dipole moment (field-independent basis, Debye):
    X=             -3.3166    Y=              3.0727    Z=              2.2497  Tot=              5.0500
 Quadrupole moment (field-independent basis, Debye-Ang):
   XX=           -122.2196   YY=           -153.4828   ZZ=           -149.3125
   XY=             -9.4169   XZ=            -13.8297   YZ=             -5.3572

  Exact polarizability:     352.186     -20.083     215.719      -3.982      -2.840     138.289
 Approx polarizability:     431.446     -29.093     369.423      -7.495      -5.750     214.165

                      1                      2                      3
                      A                      A                      A
 Frequencies --     23.0411                36.3419                45.5349
 Red. masses --      6.8466                 5.7824                 6.6812
 Frc consts  --      0.0021                 0.0045                 0.0082
 IR Inten    --      1.4543                 1.0977                 0.5352

                      4                      5                      6
                      A                      A                      A
 Frequencies --     58.0150                77.3994                92.2423
 Red. masses --      5.7572                 6.0486                 4.9142
 Frc consts  --      0.0114                 0.0213                 0.0246
 IR Inten    --      0.9322                 3.9067                 3.6452

                      7                      8                      9
                      A                      A                      A
 Frequencies --    119.0465               123.0981               141.1024
 Red. masses --      5.4578                 6.4732                 5.3840
 Frc consts  --      0.0456                 0.0578                 0.0632
 IR Inten    --      1.2946                 3.5967                 1.5433

                     10                     11                     12
                      A                      A                      A
 Frequencies --    145.5685               162.4156               187.6810
 Red. masses --      4.4345                 6.2053                 1.6191
 Frc consts  --      0.0554                 0.0964                 0.0336
 IR Inten    --      0.1257                 2.6960                 1.7700

                     13                     14                     15
                      A                      A                      A
 Frequencies --    193.3898               215.8344               253.7077
 Red. masses --      2.4292                 5.9317                 3.5430
 Frc consts  --      0.0535                 0.1628                 0.1344
 IR Inten    --      1.8372                 0.5861                 8.7911

                     16                     17                     18
                      A                      A                      A
 Frequencies --    265.6472               286.4526               312.2769
 Red. masses --      3.3750                 4.8134                 4.3603
 Frc consts  --      0.1403                 0.2327                 0.2505
 IR Inten    --      7.4977                12.6354                37.3663

                     19                     20                     21
                      A                      A                      A
 Frequencies --    336.0309               345.3661               362.1381
 Red. masses --      5.2299                 1.7364                 9.0073
 Frc consts  --      0.3479                 0.1220                 0.6960
 IR Inten    --      4.8506               141.2206                 2.3764

                     22                     23                     24
                      A                      A                      A
 Frequencies --    372.3661               384.7077               396.5879
 Red. masses --      3.3486                10.3146                 5.7880
 Frc consts  --      0.2736                 0.8994                 0.5364
 IR Inten    --     24.6193                 4.6300                 1.9977

                     25                     26                     27
                      A                      A                      A
 Frequencies --    414.5050               421.3534               458.8533
 Red. masses --      5.4793                 5.0540                 6.0910
 Frc consts  --      0.5547                 0.5287                 0.7556
 IR Inten    --      0.5062                 5.6450                14.0258

                     28                     29                     30
                      A                      A                      A
 Frequencies --    461.3620               514.3543               520.3759
 Red. masses --      6.0011                 5.9832                 6.6767
 Frc consts  --      0.7526                 0.9326                 1.0652
 IR Inten    --      9.3113                 4.1728                13.4966

                     31                     32                     33
                      A                      A                      A
 Frequencies --    564.1224               571.9833               593.1213
 Red. masses --      9.8146                 7.2673                 6.3659
 Frc consts  --      1.8402                 1.4008                 1.3195
 IR Inten    --     43.7666                31.3411                 3.3161

                     34                     35                     36
                      A                      A                      A
 Frequencies --    623.9355               654.4289               662.2475
 Red. masses --      6.3624                 5.6175                 1.2252
 Frc consts  --      1.4593                 1.4175                 0.3166
 IR Inten    --     15.7138                25.5625                50.6459

                     37                     38                     39
                      A                      A                      A
 Frequencies --    668.2214               698.8092               718.3345
 Red. masses --      4.3343                 5.9523                 5.3989
 Frc consts  --      1.1403                 1.7126                 1.6414
 IR Inten    --     13.5183                 3.0758                49.3385

                     40                     41                     42
                      A                      A                      A
 Frequencies --    748.2859               755.3242               772.3121
 Red. masses --      4.1470                 3.3599                 2.4522
 Frc consts  --      1.3681                 1.1294                 0.8618
 IR Inten    --     21.4782                 9.0935                47.7740

                     43                     44                     45
                      A                      A                      A
 Frequencies --    777.2120               791.0586               815.5485
 Red. masses --      5.3362                 2.8613                 4.5480
 Frc consts  --      1.8992                 1.0550                 1.7823
 IR Inten    --     15.1310                19.2197                28.9438

                     46                     47                     48
                      A                      A                      A
 Frequencies --    825.9604               852.5543               864.0392
 Red. masses --      1.4085                 4.5448                 1.1310
 Frc consts  --      0.5661                 1.9463                 0.4975
 IR Inten    --     21.6351                34.4139               106.4109

                     49                     50                     51
                      A                      A                      A
 Frequencies --    897.0036               939.3894               954.6804
 Red. masses --      1.3835                 2.2630                 3.6191
 Frc consts  --      0.6559                 1.1766                 1.9434
 IR Inten    --      0.4617                87.8617                 9.1188

                     52                     53                     54
                      A                      A                      A
 Frequencies --    975.1863              1001.5723              1005.1594
 Red. masses --      1.3781                 3.7361                 1.3200
 Frc consts  --      0.7721                 2.2082                 0.7857
 IR Inten    --      1.2001                 4.0855                 0.2954

                     55                     56                     57
                      A                      A                      A
 Frequencies --   1017.2747              1058.9529              1063.9398
 Red. masses --      4.3427                 2.3965                 5.2617
 Frc consts  --      2.6478                 1.5834                 3.5092
 IR Inten    --     25.0657                 2.3558                19.3602

                     58                     59                     60
                      A                      A                      A
 Frequencies --   1074.6747              1087.5057              1099.6855
 Red. masses --      3.9029                 3.9797                 4.7023
 Frc consts  --      2.6558                 2.7731                 3.3504
 IR Inten    --     38.6040                11.2584                88.7221

                     61                     62                     63
                      A                      A                      A
 Frequencies --   1126.9316              1132.0718              1143.5011
 Red. masses --      1.7852                 1.4236                 1.7589
 Frc consts  --      1.3358                 1.0749                 1.3551
 IR Inten    --     78.2717                38.0976                11.1400

                     64                     65                     66
                      A                      A                      A
 Frequencies --   1162.9184              1166.3734              1187.0003
 Red. masses --      1.8591                 1.1784                 2.2469
 Frc consts  --      1.4813                 0.9446                 1.8652
 IR Inten    --      9.2885                 5.4281               115.1658

                     67                     68                     69
                      A                      A                      A
 Frequencies --   1187.9884              1199.3475              1242.6383
 Red. masses --      1.4448                 5.8758                 2.2394
 Frc consts  --      1.2014                 4.9797                 2.0373
 IR Inten    --     11.0890               158.8263                15.8048

                     70                     71                     72
                      A                      A                      A
 Frequencies --   1276.0695              1301.8984              1324.6943
 Red. masses --      1.6848                 3.9804                 3.3902
 Frc consts  --      1.6164                 3.9750                 3.5052
 IR Inten    --      0.7265               112.1641                53.3899

                     73                     74                     75
                      A                      A                      A
 Frequencies --   1350.6972              1366.3226              1382.2632
 Red. masses --      1.3222                 2.7941                 3.1921
 Frc consts  --      1.4213                 3.0733                 3.5935
 IR Inten    --     15.7282               119.2711                78.3719

                     76                     77                     78
                      A                      A                      A
 Frequencies --   1388.0281              1388.8464              1423.3867
 Red. masses --      8.9224                 1.3791                 1.2729
 Frc consts  --     10.1281                 1.5673                 1.5195
 IR Inten    --    218.0617               145.2651                 6.3618

                     79                     80                     81
                      A                      A                      A
 Frequencies --   1447.9089              1456.9700              1458.3357
 Red. masses --      2.3284                 1.0862                 1.0769
 Frc consts  --      2.8760                 1.3585                 1.3494
 IR Inten    --      3.6440                 5.2091                 5.3574

                     82                     83                     84
                      A                      A                      A
 Frequencies --   1463.8507              1469.4986              1495.4198
 Red. masses --      1.0942                 2.4566                 5.2797
 Frc consts  --      1.3815                 3.1256                 6.9565
 IR Inten    --     19.6231                 7.5094               379.6478

                     85                     86                     87
                      A                      A                      A
 Frequencies --   1512.7332              1516.4703              1593.6217
 Red. masses --      5.9328                 3.8239                 4.7780
 Frc consts  --      7.9990                 5.1812                 7.1493
 IR Inten    --    175.8117                11.9032               847.4562

                     88                     89                     90
                      A                      A                      A
 Frequencies --   1623.1164              1659.8152              1663.7384
 Red. masses --      5.9019                 6.3478                 5.5401
 Frc consts  --      9.1609                10.3037                 9.0352
 IR Inten    --     53.4401                79.3418               199.1229

                     91                     92                     93
                      A                      A                      A
 Frequencies --   1682.0026              1732.1377              3001.7828
 Red. masses --      6.8142                10.2059                 1.0693
 Frc consts  --     11.3585                18.0413                 5.6771
 IR Inten    --    109.4474               231.5273                35.8757

                     94                     95                     96
                      A                      A                      A
 Frequencies --   3011.5604              3112.6207              3113.5968
 Red. masses --      1.0409                 1.0977                 1.0952
 Frc consts  --      5.5623                 6.2657                 6.2554
 IR Inten    --     27.6689                11.7854                 9.8438

                     97                     98                     99
                      A                      A                      A
 Frequencies --   3167.5804              3184.8643              3193.7798
 Red. masses --      1.1036                 1.0865                 1.0910
 Frc consts  --      6.5240                 6.4935                 6.5566
 IR Inten    --      0.9959                 2.8063                 2.5547

                    100                    101                    102
                      A                      A                      A
 Frequencies --   3202.3376              3209.4372              3304.5995
 Red. masses --      1.0962                 1.0965                 1.1002
 Frc consts  --      6.6232                 6.6543                 7.0788
 IR Inten    --      7.9500                 6.2289                 9.3995

                    103                    104                    105
                      A                      A                      A
 Frequencies --   3332.0343              3572.8541              3882.9146
 Red. masses --      1.0685                 1.0772                 1.0668
 Frc consts  --      6.9898                 8.1015                 9.4765
 IR Inten    --    435.8433                83.0424                65.8759

 - Thermochemistry -
 -------------------
 Temperature   298.150 Kelvin.  Pressure   1.00000 Atm.
 Atom     1 has atomic number  6 and mass  12.00000

 Molecular mass:   351.05251 amu.
 Principal axes and moments of inertia in atomic units:
                           1         2         3
     Eigenvalues --  2946.92884********************
           X            0.99999  -0.00022  -0.00387
           Y            0.00016   0.99984  -0.01764
           Z            0.00387   0.01764   0.99984
 This molecule is an asymmetric top.
 Rotational symmetry number  1.
 Warning -- assumption of classical behavior for rotation
           may cause significant error
 Rotational temperatures (Kelvin)      0.02939     0.00492     0.00443
 Rotational constants (GHZ):           0.61241     0.10246     0.09232
 Zero-point vibrational energy     715820.7 (Joules/Mol)
                                  171.08526 (Kcal/Mol)
 Warning -- explicit consideration of  33 degrees of freedom as
           vibrations may cause significant error
 Vibrational temperatures:     33.15    52.29    65.51    83.47   111.36
          (Kelvin)            132.72   171.28   177.11   203.01   209.44
                              233.68   270.03   278.24   310.54   365.03
                              382.21   412.14   449.30   483.47   496.90
                              521.04   535.75   553.51   570.60   596.38
                              606.23   660.19   663.80   740.04   748.70
                              811.65   822.96   853.37   897.70   941.58
                              952.83   961.42  1005.43  1033.52  1076.62
                             1086.74  1111.18  1118.23  1138.16  1173.39
                             1188.37  1226.64  1243.16  1290.59  1351.57
                             1373.57  1403.08  1441.04  1446.20  1463.63
                             1523.60  1530.77  1546.22  1564.68  1582.20
                             1621.40  1628.80  1645.24  1673.18  1678.15
                             1707.83  1709.25  1725.59  1787.88  1835.98
                             1873.14  1905.94  1943.35  1965.83  1988.77
                             1997.06  1998.24  2047.94  2083.22  2096.25
                             2098.22  2106.15  2114.28  2151.58  2176.49
                             2181.86  2292.87  2335.30  2388.10  2393.75
                             2420.03  2492.16  4318.90  4332.96  4478.37
                             4479.77  4557.44  4582.31  4595.14  4607.45
                             4617.66  4754.58  4794.05  5140.54  5586.65

 Zero-point correction=                           0.272642 (Hartree/Particle)
 Thermal correction to Energy=                    0.293530
 Thermal correction to Enthalpy=                  0.294474
 Thermal correction to Gibbs Free Energy=         0.221831
 Sum of electronic and zero-point Energies=          -1554.080357
 Sum of electronic and thermal Energies=             -1554.059469
 Sum of electronic and thermal Enthalpies=           -1554.058525
 Sum of electronic and thermal Free Energies=        -1554.131168

                     E (Thermal)             CV                S
                      KCal/Mol        Cal/Mol-Kelvin    Cal/Mol-Kelvin
 Total                  184.193             79.835            152.890
 Electronic               0.000              0.000              0.000
 Translational            0.889              2.981             43.461
 Rotational               0.889              2.981             35.272
 Vibrational            182.415             73.874             74.157
 Vibration     1          0.593              1.985              6.353
 Vibration     2          0.594              1.982              5.449
 Vibration     3          0.595              1.979              5.002
 Vibration     4          0.596              1.974              4.524
 Vibration     5          0.599              1.964              3.956
 Vibration     6          0.602              1.955              3.612
 Vibration     7          0.609              1.933              3.116
 Vibration     8          0.610              1.930              3.051
 Vibration     9          0.615              1.912              2.789
 Vibration    10          0.617              1.907              2.729
 Vibration    11          0.623              1.889              2.521
 Vibration    12          0.632              1.857              2.251
 Vibration    13          0.635              1.849              2.195
 Vibration    14          0.645              1.817              1.994
 Vibration    15          0.665              1.757              1.705
 Vibration    16          0.671              1.736              1.624
 Vibration    17          0.684              1.699              1.495
 Vibration    18          0.701              1.650              1.350
 Vibration    19          0.717              1.604              1.231
 Vibration    20          0.724              1.585              1.187
 Vibration    21          0.736              1.550              1.113
 Vibration    22          0.744              1.529              1.070
 Vibration    23          0.754              1.503              1.021
 Vibration    24          0.763              1.477              0.975
 Vibration    25          0.778              1.439              0.911
 Vibration    26          0.784              1.424              0.887
 Vibration    27          0.817              1.341              0.769
 Vibration    28          0.819              1.336              0.762
 Vibration    29          0.869              1.218              0.623
 Vibration    30          0.875              1.205              0.609
 Vibration    31          0.920              1.109              0.516
 Vibration    32          0.928              1.092              0.500
 Vibration    33          0.951              1.046              0.462

                           ! Non-Optimized Parameters !
 Normal termination of Gaussian 16 at Tue Feb 14 20:38:26 2023.
