 Gaussian 16, Revision C.01,
 Gaussian 16:  ES64L-G16RevC.01  3-Jul-2019

 -------------------------
 # pop=nbo m06/6-31+g(d,p)
 -------------------------

 --------
 Isoxicam
 --------
 Symbolic Z-matrix:
 Charge = -1 Multiplicity = 2

                         Standard orientation:
 ---------------------------------------------------------------------
 Center     Atomic      Atomic             Coordinates (Angstroms)
 Number     Number       Type             X           Y           Z
 ---------------------------------------------------------------------
      1          6           0       -3.098007   -0.275499   -0.146862
      2          6           0       -4.445792   -0.596026   -0.097961
      3          6           0       -5.374198    0.427261    0.074677
      4          6           0       -4.944761    1.747869    0.190277
      5          6           0       -3.590250    2.058590    0.151763
      6          6           0       -2.642744    1.044344   -0.006799
      7          1           0       -4.754851   -1.634040   -0.193689
      8          1           0       -6.434546    0.192607    0.115283
      9          1           0       -5.673486    2.544159    0.317463
     10          1           0       -3.249437    3.085383    0.248983
     11          6           0       -1.208229    1.349557   -0.016675
     12          6           0       -0.257033    0.383070    0.184438
     13         16           0       -1.886158   -1.539543   -0.464455
     14          8           0       -1.462781   -1.448168   -1.848846
     15          8           0       -2.350088   -2.792883    0.106895
     16          7           0       -0.616100   -0.969118    0.489651
     17          6           0       -0.725886   -1.270929    1.927933
     18          1           0        0.227601   -1.008014    2.396092
     19          1           0       -1.528297   -0.690869    2.407316
     20          1           0       -0.909014   -2.338376    2.062800
     21          8           0       -0.910954    2.619516   -0.254694
     22          1           0        0.079459    2.699140   -0.213890
     23          6           0        1.162088    0.713207    0.075600
     24          8           0        1.553129    1.884878   -0.047724
     25          7           0        2.015069   -0.349066    0.122458
     26          1           0        1.600571   -1.277117    0.126214
     27          6           0        3.397820   -0.283988    0.049877
     28          7           0        4.062891   -1.418077    0.103036
     29          6           0        5.490051    0.286626   -0.087228
     30          6           0        4.249606    0.845270   -0.069912
     31          6           0        6.854195    0.846400   -0.194389
     32          1           0        7.456061    0.576813    0.680255
     33          1           0        7.365954    0.457797   -1.081518
     34          1           0        6.809122    1.935664   -0.266041
     35          8           0        5.394054   -1.050293    0.013703
     36          1           0        3.968335    1.884452   -0.137094
 ---------------------------------------------------------------------

 SCF Done:  E(UM06) =  -1479.21087453     A.U. after   25 cycles

 The electronic state is 2-A.
 Alpha  occ. eigenvalues --  -89.17010 -19.23117 -19.13326 -19.12264 -19.11711
 Alpha  occ. eigenvalues --  -19.09165 -14.35374 -14.34148 -14.33467 -10.24602
 Alpha  occ. eigenvalues --  -10.24216 -10.23671 -10.20125 -10.19478 -10.18434
 Alpha  occ. eigenvalues --  -10.17009 -10.16065 -10.15861 -10.15173 -10.15160
 Alpha  occ. eigenvalues --  -10.14740 -10.14457 -10.14199  -8.13656  -6.05480
 Alpha  occ. eigenvalues --   -6.05407  -6.05231  -1.08016  -1.02946  -0.97368
 Alpha  occ. eigenvalues --   -0.94477  -0.92308  -0.86581  -0.84568  -0.77322
 Alpha  occ. eigenvalues --   -0.76253  -0.73455  -0.67797  -0.66337  -0.65697
 Alpha  occ. eigenvalues --   -0.64267  -0.60891  -0.57364  -0.54079  -0.53898
 Alpha  occ. eigenvalues --   -0.51248  -0.49736  -0.48664  -0.46172  -0.44246
 Alpha  occ. eigenvalues --   -0.43466  -0.42566  -0.41210  -0.40129  -0.39381
 Alpha  occ. eigenvalues --   -0.38497  -0.37791  -0.35780  -0.35619  -0.35259
 Alpha  occ. eigenvalues --   -0.34647  -0.34144  -0.33814  -0.33690  -0.33198
 Alpha  occ. eigenvalues --   -0.33000  -0.31765  -0.30752  -0.30513  -0.30195
 Alpha  occ. eigenvalues --   -0.27844  -0.27029  -0.26463  -0.24952  -0.24875
 Alpha  occ. eigenvalues --   -0.24212  -0.23098  -0.22608  -0.21856  -0.20486
 Alpha  occ. eigenvalues --   -0.19041  -0.18431  -0.16939  -0.16104  -0.15989
 Alpha  occ. eigenvalues --   -0.15003  -0.11813   0.00472
 Alpha virt. eigenvalues --    0.04334   0.06890   0.07222   0.07440   0.07788
 Alpha virt. eigenvalues --    0.07829   0.08161   0.08831   0.09269   0.09473
 Alpha virt. eigenvalues --    0.09608   0.10191   0.10894   0.11293   0.11657

  Beta  occ. eigenvalues --  -89.17008 -19.23096 -19.13213 -19.12247 -19.11693
  Beta  occ. eigenvalues --  -19.09048 -14.35319 -14.34135 -14.33463 -10.24602
  Beta  occ. eigenvalues --  -10.24096 -10.23669 -10.20125 -10.19202 -10.18424
  Beta  occ. eigenvalues --  -10.17010 -10.15963 -10.15876 -10.15193 -10.15131
  Beta  occ. eigenvalues --  -10.14647 -10.14366 -10.13980  -8.13654  -6.05474
  Beta  occ. eigenvalues --   -6.05400  -6.05232  -1.07950  -1.02890  -0.96962
  Beta  occ. eigenvalues --   -0.94088  -0.92254  -0.86427  -0.84481  -0.77210
  Beta  occ. eigenvalues --   -0.75909  -0.73431  -0.67299  -0.66039  -0.65675
  Beta  occ. eigenvalues --   -0.63978  -0.60820  -0.56963  -0.53857  -0.53725
  Beta  occ. eigenvalues --   -0.51091  -0.49523  -0.48506  -0.45999  -0.44021
  Beta  occ. eigenvalues --   -0.43385  -0.42395  -0.41115  -0.40026  -0.39253
  Beta  occ. eigenvalues --   -0.38351  -0.37697  -0.35649  -0.35463  -0.35199
  Beta  occ. eigenvalues --   -0.34492  -0.34042  -0.33552  -0.33322  -0.32932
  Beta  occ. eigenvalues --   -0.32851  -0.31624  -0.30690  -0.30303  -0.29184
  Beta  occ. eigenvalues --   -0.27689  -0.26470  -0.26052  -0.24791  -0.24318
  Beta  occ. eigenvalues --   -0.24068  -0.22971  -0.22491  -0.21625  -0.20384
  Beta  occ. eigenvalues --   -0.18852  -0.18333  -0.15831  -0.15441  -0.15132
  Beta  occ. eigenvalues --   -0.14466  -0.10520
  Beta virt. eigenvalues --    0.04343   0.06983   0.07110   0.07330   0.07497
  Beta virt. eigenvalues --    0.07980   0.08096   0.08380   0.09251   0.09534
  Beta virt. eigenvalues --    0.09653   0.09884   0.10359   0.11048   0.11498

 Mulliken charges and spin densities:
               1          2
     1  C   -1.329838   0.164313
     2  C    0.330896  -0.093159
     3  C   -0.024572   0.241513
     4  C    0.062368  -0.003538
     5  C   -0.210992   0.094905
     6  C    0.696911   0.050096
     7  H    0.144022   0.002888
     8  H    0.103605  -0.011115
     9  H    0.108480  -0.000284
    10  H    0.135756  -0.003994
    11  C   -0.155931   0.250044
    12  C   -0.515329   0.025203
    13  S    1.283350   0.054716
    14  O   -0.460138   0.006041
    15  O   -0.555389   0.003820
    16  N   -0.639827   0.003673
    17  C   -0.074704  -0.021593
    18  H    0.150345  -0.000341
    19  H    0.159050   0.001729
    20  H    0.171489   0.001033
    21  O   -0.587197   0.037184
    22  H    0.435401  -0.002010
    23  C    0.568114   0.107400
    24  O   -0.728203   0.049845
    25  N   -0.315588  -0.001669
    26  H    0.330010  -0.000034
    27  C    0.221147   0.001287
    28  N   -0.568124   0.033491
    29  C   -0.283572   0.003450
    30  C    0.399357  -0.001584
    31  C   -0.627085   0.001516
    32  H    0.173503   0.000101
    33  H    0.175161   0.000170
    34  H    0.168293  -0.000018
    35  O    0.075495   0.004986
    36  H    0.183735  -0.000066
 Sum of Mulliken charges =  -1.00000   1.00000

 Dipole moment (field-independent basis, Debye):
    X=              4.5296    Y=              2.1607    Z=              2.7812  Tot=              5.7376
 Quadrupole moment (field-independent basis, Debye-Ang):
   XX=           -175.5618   YY=           -168.5768   ZZ=           -151.2781
   XY=              9.0733   XZ=             -4.4281   YZ=             -2.9266

 Summary of Natural Population Analysis:

                                       Natural Population
                Natural  -----------------------------------------------
    Atom  No    Charge         Core      Valence    Rydberg      Total
 -----------------------------------------------------------------------
      C    1   -0.10904      0.99935     2.09463    0.01507     3.10904
      C    2   -0.14347      0.99952     2.13585    0.00810     3.14347
      C    3   -0.06398      0.99957     2.05650    0.00791     3.06398
      C    4   -0.13336      0.99957     2.12603    0.00775     3.13336
      C    5   -0.07530      0.99954     2.06845    0.00730     3.07530
      C    6   -0.02776      0.99948     2.01743    0.01085     3.02776
      H    7    0.12805      0.00000     0.37106    0.00088     0.37195
      H    8    0.10982      0.00000     0.38944    0.00073     0.39018
      H    9    0.11426      0.00000     0.38499    0.00075     0.38574
      H   10    0.12456      0.00000     0.37458    0.00086     0.37544
      C   11    0.28302      0.99937     1.70574    0.01187     2.71698
      C   12   -0.05149      0.99939     2.03815    0.01395     3.05149
      S   13    1.20009      4.99924     1.70436    0.09631     6.79991
      O   14   -0.47304      0.99993     3.45964    0.01348     4.47304
      O   15   -0.48896      0.99993     3.47463    0.01440     4.48896
      N   16   -0.39004      0.99972     2.87526    0.01506     3.89004
      C   17   -0.24730      0.99976     2.24127    0.00627     3.24730
      H   18    0.12108      0.00000     0.37818    0.00074     0.37892
      H   19    0.11439      0.00000     0.38454    0.00107     0.38561
      H   20    0.12770      0.00000     0.37166    0.00064     0.37230
      O   21   -0.35529      0.99988     3.34657    0.00884     4.35529
      H   22    0.27602      0.00000     0.22126    0.00272     0.22398
      C   23    0.36957      0.99962     1.61318    0.01763     2.63043
      O   24   -0.35224      0.99989     3.34142    0.01093     4.35224
      N   25   -0.33325      0.99965     2.82733    0.00627     3.83325
      H   26    0.23311      0.00000     0.26517    0.00172     0.26689
      C   27    0.18397      0.99962     1.80215    0.01426     2.81603
      N   28   -0.10106      0.99968     2.58601    0.01537     3.60106
      C   29    0.17303      0.99954     1.81455    0.01288     2.82697
      C   30   -0.19566      0.99942     2.18926    0.00698     3.19566
      C   31   -0.37776      0.99971     2.37441    0.00365     3.37776
      H   32    0.13082      0.00000     0.36840    0.00078     0.36918
      H   33    0.13136      0.00000     0.36786    0.00078     0.36864
      H   34    0.13086      0.00000     0.36871    0.00043     0.36914
      O   35   -0.17681      0.99986     3.16532    0.01163     4.17681
      H   36    0.14409      0.00000     0.35510    0.00081     0.35591
 =======================================================================
   * Total *   -0.00000     26.99121    59.65912    0.34967    87.00000

 Normal termination of Gaussian 16 at Wed May 25 14:50:53 2022.
